Process 3 of 8 is on v43 - thread support 0
Process 6 of 8 is on v43 - thread support 0
Process 5 of 8 is on v43 - thread support 0
Process 0 of 8 is on v43 - thread support 0
Process 4 of 8 is on v43 - thread support 0
Process 7 of 8 is on v43 - thread support 0
Process 2 of 8 is on v43 - thread support 0
Process 1 of 8 is on v43 - thread support 0
                  Welcome to Q-Chem
     A Quantum Leap Into The Future Of Chemistry

 Y. Shao, L. Fusti-Molnar, Y. Jung, J. Kussmann, C. Ochsenfeld,
 S. T. Brown, A. T. B. Gilbert, L. V. Slipchenko,S. V. Levchenko,
 D. P. O'Neill, R. A. DiStasio Jr., R. C. Lochan, T. Wang,
 G. J. O. Beran, N. A. Besley, J. M. Herbert, C. Y. Lin,
 T. Van Voorhis, S. H. Chien, A. Sodt, R. P. Steele, 
 V. A. Rassolov, P. E. Maslen, P. P. Korambath, R. D. Adamson,
 B. Austin, J. Baker, E. F. C. Byrd, H. Dachsel, R. J. Doerksen,
 A. Dreuw, B. D. Dunietz, A. D. Dutoi, T. R. Furlani,
 S. R. Gwaltney, A. Heyden, S. Hirata, C.-P. Hsu, G. Kedziora,
 R. Z. Khaliullin, P. Klunzinger, A. M. Lee, M. S. Lee, W. Liang,
 I. Lotan, N. Nair, B. Peters, E. I. Proynov, P. A. Pieniazek, 
 Y. M. Rhee, J. Ritchie, E. Rosta, C. D. Sherrill, 
 A. C. Simmonett, J. E. Subotnik, H. L. Woodcock III,
 W. Zhang, A. T. Bell, A. K. Chakraborty, D. M. Chipman,
 F. J. Keil, A. Warshel, W. J. Hehre, H. F. Schaefer III,
 J. Kong, A. I. Krylov, P. M. W. Gill, M. Head-Gordon,

 Additional authors for Version 3.1: 
 Z. Gan, Y. Zhao, N. E. Schultz, D. Truhlar, E. Epifanovsky and M. Oana.

 Additional authors for Version 3.2: 
 R. Baer, B. R. Brooks, D. Casanova, J.-D. Chai, C.-L. Cheng, 
 C. Cramer, D. Crittenden, A. Ghysels, G. Hawkins, E. G. Hohenstein, 
 C. Kelley, W. Kurlancheek, D. Liotard, E. Livshits, P. Manohar, 
 A. Marenich, D. Neuhauser, R. Olson, M. A. Rohrdanz, K. S. Thanthiriwatte, 
 A. J. W. Thom, V. Vanovschi, C. F. Williams, Q. Wu and Z.-Q. You. 

 Additional authors for Version 4.0: 
 A. Aspuru-Guzik, C. Chang, R. G. Edgar, E. Sundstrom, J. Parkhill, K. Lawler,
 M. Gordon, M. Schmidt, N. Shenvi, D. Lambrecht, M. Goldey, R. Olivares-Amaya,
 Y. Bernard, L. Vogt, M. Watson, J. Liu, S. Yeganeh, B. Kaduk, O. Vydrov, X. Xu, 
 I. Kaliman, K. Khistyaev, N. Russ, I.Y. Zhang, W.A. Goddard III, F. Liu, R. King ,
 A. Landau, M. Wormit, A. Dreuw, M. Diedenhofen, A. Klamt, A.W. Lange, D. Ghosh,
 D. Kosenkov, T. Kus, A. Landau, D. Zuev, J. Deng, S.P. Mao, Y.C. Su, D. Small,
 L. D. Jacobson
 
 Q-Chem, Version 4.0.1, Q-Chem, Inc., Pittsburgh, PA (2007).


 Intel X86 EM64T Linux Version 4.1.0.1 

 Q-chem begins on Mon Jan  6 11:48:26 2014  

Host: v43
0

     Scratch files written to /tmp1/jvandezande/37486/qchem29651.0//
 Jun2313 |opt|qchem|4.0|source|libmdc|qstr_info.C -1
 Parallel job on  8  processors

theFileMan(): MAXOPENFILES=974 MAX_SUB_FILE_NUM=16
Maximum size of a physical file is 2.0 GB, maximum size of a tmp-file is 32.0 GB

Warning: disabling incdft.Finally everything over in PARseQInput

--------------------------------------------------------------
User input:
--------------------------------------------------------------
$comment
	Fe2CO9 system
	def2-TZVP
	M06L
$end

$molecule
	0	3
	Fe
	Fe	1	FeFe
	C	1	FeC1	2	FeFeC1
	O	3	CO1		1	FeCO1	2	180
	C	1	FeC1	2	FeFeC1	3	120
	O	5	CO1		1	FeCO1	2	180
	C	1	FeC1	2	FeFeC1	3	-120
	O	7	CO1		1	FeCO1	2	180
	C	1	FeC2	2	FeFeC2	3	60
	O	9	CO2		1	FeCO2	2	-177.5
	C	1	FeC2	2	FeFeC2	3	180
	O	11	CO2		1	FeCO2	2	-177.5
	C	1	FeC2	2	FeFeC2	3	-60
	O	13	CO2		1	FeCO2	2	-177.5
	C	2	FeC2	1	FeFeC2	3	60
	O	15	CO2		2	FeCO2	1	177.5
	C	2	FeC2	1	FeFeC2	3	180
	O	17	CO2		2	FeCO2	1	177.5
	C	2	FeC2	1	FeFeC2	3	-60
	O	19	CO2		2	FeCO2	1	177.5

	FeFe	=	2.515
	FeC1	=	2.009
	FeFeC1	=	51.3
	CO1		=	1.162
	FeCO1	=	141.3
	FeC2	=	1.826
	FeFeC2	=	120.3
	OCFeC	=	48.5
	CO2		=	1.141
	FeCO2	=	177.6
$end

$rem
	jobtype					opt
	exchange				M06L
	basis					gen
	SYMMETRY				FALSE
	MAX_SCF_CYCLES			300
	GEOM_OPT_TOL_GRADIENT	30
	GEOM_OPT_TOL_DISPLACEMENT	120
	GEOM_OPT_TOL_ENERGY		1
	XC_GRID					000075000302
	MEM_STATIC				2000
	MEM_TOTAL				3891
$end

$basis
C     0 
S   6   1.00
  13575.3496820              0.22245814352E-03      
   2035.2333680              0.17232738252E-02      
    463.22562359             0.89255715314E-02      
    131.20019598             0.35727984502E-01      
     42.853015891            0.11076259931    
     15.584185766            0.24295627626    
S   2   1.00
      6.2067138508           0.41440263448    
      2.5764896527           0.23744968655    
S   1   1.00
      0.57696339419          1.0000000        
S   1   1.00
      0.22972831358          1.0000000        
S   1   1.00
      0.95164440028E-01            1.0000000        
P   4   1.00
     34.697232244            0.53333657805E-02      
      7.9582622826           0.35864109092E-01      
      2.3780826883           0.14215873329    
      0.81433208183          0.34270471845    
P   1   1.00
      0.28887547253          1.0000000        
P   1   1.00
      0.10056823671          1.0000000        
D   1   1.00
      1.09700000             1.0000000        
D   1   1.00
      0.31800000             1.0000000        
F   1   1.00
      0.76100000             1.0000000        
****
O     0 
S   6   1.00
  27032.3826310              0.21726302465E-03      
   4052.3871392              0.16838662199E-02      
    922.32722710             0.87395616265E-02      
    261.24070989             0.35239968808E-01      
     85.354641351            0.11153519115    
     31.035035245            0.25588953961    
S   2   1.00
     12.260860728            0.39768730901    
      4.9987076005           0.24627849430    
S   1   1.00
      1.1703108158           1.0000000        
S   1   1.00
      0.46474740994          1.0000000        
S   1   1.00
      0.18504536357          1.0000000        
P   4   1.00
     63.274954801            0.60685103418E-02      
     14.627049379            0.41912575824E-01      
      4.4501223456           0.16153841088    
      1.5275799647           0.35706951311    
P   1   1.00
      0.52935117943          1.0000000        
P   1   1.00
      0.17478421270          1.0000000        
D   1   1.00
      2.31400000             1.0000000        
D   1   1.00
      0.64500000             1.0000000        
F   1   1.00
      1.42800000             1.0000000        
****
Fe     0 
S   8   1.00
 300784.8463700              0.22806273096E-03      
  45088.9705570              0.17681788761E-02      
  10262.5163170              0.91927083490E-02      
   2905.2897293              0.37355495807E-01      
    946.11487137             0.12151108426    
    339.87832894             0.28818881468    
    131.94425588             0.41126612677    
     52.111494077            0.21518583573    
S   4   1.00
    329.48839267            -0.24745216477E-01      
    101.92332739            -0.11683089050    
     16.240462745            0.55293621136    
      6.8840675801           0.53601640182    
S   2   1.00
     10.470693782           -0.22912708577    
      1.7360039648           0.71159319984    
S   1   1.00
      0.72577288979          1.0000000        
S   1   1.00
      0.11595528203          1.0000000        
S   1   1.00
      0.41968227746E-01            1.0000000        
P   6   1.00
   1585.3959970              0.23793960179E-02      
    375.38006499             0.19253154755E-01      
    120.31816501             0.90021836536E-01      
     44.788749031            0.25798172356    
     17.829278584            0.41492649744    
      7.2247153786           0.24207474784    
P   3   1.00
     28.143219756           -0.29041755152E-01      
      3.8743241412           0.55312260343    
      1.5410752281           0.96771136842    
P   1   1.00
      0.58285615250          1.0000000        
P   1   1.00
      0.1349150              1.0000000        
D   4   1.00
     61.996675034            0.11971972255E-01      
     17.873732552            0.73210135410E-01      
      6.2744782934           0.23103094314    
      2.3552337175           0.39910706494    
D   1   1.00
      0.85432239901          1.0000000        
D   1   1.00
      0.27869254413          1.0000000        
D   1   1.00
      0.0910000              1.0000000        
F   1   1.00
      1.5980000              1.0000000        
****
$end

--------------------------------------------------------------
 ----------------------------------------------------
       Standard Nuclear Orientation (Angstroms)
    I     Atom         X            Y            Z
 ----------------------------------------------------
    1      Fe      0.000000     0.000000     1.257173
    2      Fe     -0.000000     0.000000    -1.257827
    3      C       1.567885    -0.000000     0.001060
    4      O       2.729885    -0.000000     0.001060
    5      C      -0.783942     1.357828     0.001060
    6      O      -1.364942     2.364149     0.001060
    7      C      -0.783942    -1.357828     0.001060
    8      O      -1.364942    -2.364149     0.001060
    9      C       0.788280     1.365341     2.178440
   10      O       1.270178     2.195845     2.794815
   11      C      -1.576560     0.000000     2.178440
   12      O      -2.536747     0.002084     2.794815
   13      C       0.788280    -1.365341     2.178440
   14      O       1.266569    -2.197929     2.794815
   15      C       0.788280    -1.365341    -2.179095
   16      O       1.266569    -2.197929    -2.795470
   17      C      -1.576560    -0.000000    -2.179095
   18      O      -2.536747     0.002084    -2.795470
   19      C       0.788280     1.365341    -2.179095
   20      O       1.270178     2.195845    -2.795470
 ----------------------------------------------------
 Molecular Point Group                 C3    NOp =  3
 Largest Abelian Subgroup              C1    NOp =  1
 Nuclear Repulsion Energy =  2484.1818258112 hartrees
 There are       90 alpha and       88 beta electrons

 Q-Chem warning in module snoman.F, line  326, PE  0:

 turning symmetry off for DFT job


 Q-Chem warning in module /opt/qchem/4.0/source/forms1/BasisType.C, line 1125:

 Setting pure/cartesian flag to 2111 for general basis


 Requested basis set is non-standard
 There are 228 shells and 648 basis functions

Total QAlloc Memory Limit   3891 MB
Mega-Array Size      1956 MB
MEM_STATIC part      2000 MB
 A cutoff of  1.0D-11 yielded  18783 shell pairs
 There are    151395 function pairs (    200673 Cartesian)
 Smallest overlap matrix eigenvalue = 2.70E-05

  Scale SEOQF with 1.000000e-01/1.000000e-01/1.000000e-01

 Standard Electronic Orientation quadrupole field applied
 Nucleus-field energy     =    -0.0000000340 hartrees
 Guess MOs from core Hamiltonian diagonalization
 An unrestricted Kohn-Sham SCF calculation will be
 performed using Pulay DIIS extrapolation
 Exchange:  M06L     
 Using Euler-Maclaurin-Lebedev (75,302) quadrature formula
 SCF converges when DIIS error is below 1.0E-08
 Requested basis set is non-standard
 There are 228 shells and 648 basis functions
 A cutoff of  1.0D-11 yielded  18783 shell pairs
 There are    151395 function pairs (    200673 Cartesian)
 ---------------------------------------
  Cycle       Energy         DIIS Error
 ---------------------------------------
    1   -2243.8394546697      7.27E-02
    2   -1968.1489874947      8.68E-02
    3   -3263.3317038582      3.64E-02
    4   -3060.0248868263      9.87E-02
    5   -2988.3348707266      1.17E-01
    6   -3000.0499891790      1.15E-01
    7   -3014.6784166511      1.13E-01
    8   -3016.9944741627      1.13E-01
    9   -3021.7654514836      1.12E-01
   10   -3021.7162367916      1.12E-01
   11   -3022.3947404259      1.12E-01
   12   -3023.7081103336      1.12E-01
   13   -3025.6292758338      1.12E-01
   14   -3024.7686557695      1.12E-01
   15   -3033.7852135793      1.10E-01
   16   -3029.2142651447      1.12E-01
   17   -2370.1097372406      1.21E-01
   18   -2459.0817732825      1.39E-01
   19   -2132.3075513538      1.02E-01
   20   -2967.8810628624      8.15E-02
   21   -3248.4235254916      6.48E-02
   22   -3370.5182135522      4.48E-02
   23   -3417.4528268449      3.94E-02
   24   -3489.6405487690      2.64E-02
   25   -3378.5834092644      4.26E-02
   26   -3517.7167526917      2.35E-02
   27   -3423.7485139686      3.38E-02
   28   -3538.3102346374      1.59E-02
   29   -3525.3401385720      2.32E-02
   30   -3519.3627613841      2.04E-02
   31   -3534.9158836477      1.53E-02
   32   -3541.8408994354      1.31E-02
   33   -3530.9996044398      1.51E-02
   34   -3540.7386959155      1.34E-02
   35   -3539.9050969668      1.29E-02
   36   -3543.3857374531      1.11E-02
   37   -3543.8511927917      9.35E-03
   38   -3546.0060787402      6.19E-03
   39   -3545.8771755258      7.63E-03
   40   -3546.5905523334      4.69E-03
   41   -3547.4423342014      2.81E-03
   42   -3547.4432394135      2.49E-03
   43   -3547.5709639273      2.20E-03
   44   -3547.7057505162      1.07E-03
   45   -3547.7277662082      7.69E-04
   46   -3547.7463879966      4.88E-04
   47   -3547.7580590054      2.46E-04
   48   -3547.7616443392      8.67E-05
   49   -3547.7621702706      5.27E-05
   50   -3547.7623324182      4.62E-05
   51   -3547.7624374567      2.97E-05
   52   -3547.7624908142      1.72E-05
   53   -3547.7625291589      1.97E-05
   54   -3547.7625495725      1.76E-05
   55   -3547.7625899380      1.57E-05
   56   -3547.7626248620      2.54E-05
   57   -3547.7625934627      1.81E-05
   58   -3547.7626222619      2.45E-05
   59   -3547.7626517542      2.53E-05
   60   -3547.7626491403      2.55E-05
   61   -3547.7626170699      2.71E-05
   62   -3547.7626587563      3.07E-05
   63   -3547.7625994744      2.72E-05
   64   -3547.7625681828      2.55E-05
   65   -3547.7625280055      2.58E-05
   66   -3547.7623672556      3.79E-05
   67   -3547.7624375992      3.29E-05
   68   -3547.7625357375      3.44E-05
   69   -3547.7626605620      3.98E-05
   70   -3547.7626811357      3.98E-05
   71   -3547.7627258098      5.81E-05
   72   -3547.7627544204      3.54E-05
   73   -3547.7628044557      3.78E-05
   74   -3547.7628775812      3.92E-05
   75   -3547.7629638476      3.87E-05
   76   -3547.7628649080      3.45E-05
   77   -3547.7628246662      3.84E-05
   78   -3547.7627798465      3.99E-05
   79   -3547.7627754059      4.26E-05
   80   -3547.7628772411      4.41E-05
   81   -3547.7621246997      6.46E-05
   82   -3547.7625082099      3.71E-05
   83   -3547.7625375354      2.57E-05
   84   -3547.7626055038      2.83E-05
   85   -3547.7625722020      2.77E-05
   86   -3547.7625058105      2.39E-05
   87   -3547.7624203079      3.36E-05
   88   -3547.7624284568      2.98E-05
   89   -3547.7623929177      2.35E-05
   90   -3547.7623795263      1.88E-05
   91   -3547.7623887473      1.55E-05
   92   -3547.7623971907      1.43E-05
   93   -3547.7623608669      2.02E-05
   94   -3547.7623930819      1.78E-05
   95   -3547.7624042153      1.68E-05
   96   -3547.7623545639      4.41E-05
   97   -3547.7623369633      4.11E-05
   98   -3547.7623278476      1.80E-05
   99   -3547.7623212967      2.23E-05
  100   -3547.7622757870      2.68E-05
  101   -3547.7622875890      2.01E-05
  102   -3547.7622722118      2.15E-05
  103   -3547.7622711156      2.22E-05
  104   -3547.7622741116      2.04E-05
  105   -3547.7622925224      9.22E-06
  106   -3547.7622828410      1.14E-05
  107   -3547.7622713388      1.24E-05
  108   -3547.7622668996      1.22E-05
  109   -3547.7622641601      8.43E-06
  110   -3547.7622575186      8.95E-06
  111   -3547.7622538199      6.55E-06
  112   -3547.7622509823      9.45E-06
  113   -3547.7622554358      5.08E-06
  114   -3547.7622556439      4.84E-06
  115   -3547.7622565708      4.34E-06
  116   -3547.7622555080      4.57E-06
  117   -3547.7622566097      4.15E-06
  118   -3547.7622528006      6.47E-06
  119   -3547.7622584597      5.29E-06
  120   -3547.7622594650      8.33E-06
  121   -3547.7622601763      7.68E-06
  122   -3547.7622656261      5.32E-06
  123   -3547.7622656155      3.91E-06
  124   -3547.7622666925      4.03E-06
  125   -3547.7622652435      4.29E-06
  126   -3547.7622650203      4.26E-06
  127   -3547.7622677033      5.05E-06
  128   -3547.7622714822      6.43E-06
  129   -3547.7622554379      4.21E-06
  130   -3547.7622617509      4.26E-06
  131   -3547.7622603616      4.52E-06
  132   -3547.7622619663      4.10E-06
  133   -3547.7622556449      4.64E-06
  134   -3547.7622642333      4.04E-06
  135   -3547.7622638925      4.13E-06
  136   -3547.7622633579      4.24E-06
  137   -3547.7622629684      4.19E-06
  138   -3547.7622667586      4.07E-06
  139   -3547.7622679713      4.87E-06
  140   -3547.7622630041      4.23E-06
  141   -3547.7622632932      4.06E-06
  142   -3547.7622634851      4.03E-06
  143   -3547.7622634132      4.00E-06
  144   -3547.7622636648      4.01E-06
  145   -3547.7622663329      4.86E-06
  146   -3547.7622653212      3.73E-06
  147   -3547.7622665313      6.28E-06
  148   -3547.7622676451      3.81E-06
  149   -3547.7622683792      5.45E-06
  150   -3547.7622726628      4.10E-06
  151   -3547.7622748538      3.64E-06
  152   -3547.7622777524      3.46E-06
  153   -3547.7622788743      2.97E-06
  154   -3547.7622810150      2.39E-06
  155   -3547.7622809187      3.33E-06
  156   -3547.7622833292      2.38E-06
  157   -3547.7622859590      2.08E-06
  158   -3547.7622876759      1.98E-06
  159   -3547.7622888667      1.61E-06
  160   -3547.7622895460      1.44E-06
  161   -3547.7622898948      1.18E-06
  162   -3547.7622910064      1.53E-06
  163   -3547.7622902407      1.11E-06
  164   -3547.7622913483      1.41E-06
  165   -3547.7622909505      1.15E-06
  166   -3547.7622912967      1.39E-06
  167   -3547.7622912240      1.33E-06
  168   -3547.7622901822      1.62E-06
  169   -3547.7622908560      1.44E-06
  170   -3547.7622908016      1.54E-06
  171   -3547.7622910768      1.18E-06
  172   -3547.7622906521      1.03E-06
  173   -3547.7622907245      7.96E-07
  174   -3547.7622904995      8.43E-07
  175   -3547.7622903661      5.10E-07
  176   -3547.7622903855      2.80E-07
  177   -3547.7622903877      1.38E-07
  178   -3547.7622903875      1.49E-07
  179   -3547.7622903885      7.68E-08
  180   -3547.7622903895      7.30E-08
  181   -3547.7622903926      4.83E-08
  182   -3547.7622903920      3.85E-08
  183   -3547.7622903919      2.15E-08
  184   -3547.7622903922      1.83E-08
  185   -3547.7622903912      2.37E-08
  186   -3547.7622903903      1.42E-08
  187   -3547.7622903885      7.71E-09 Convergence criterion met
 ---------------------------------------
 <S^2> = 2.0294
 SCF time:  CPU 47722.53 s  wall 47788.87 s
 SCF   energy in the final basis set = -3547.7622903885
 Total energy in the final basis set = -3547.7622903885
 Analysis of SCF Wavefunction
 
 --------------------------------------------------------------
             Orbital Energies (a.u.) and Symmetries
 --------------------------------------------------------------
 Warning : Irrep of orbital(   5) could not be determined
 Warning : Irrep of orbital(   6) could not be determined
 Warning : Irrep of orbital(   7) could not be determined
 Warning : Irrep of orbital(   8) could not be determined
 Warning : Irrep of orbital(   9) could not be determined
 Warning : Irrep of orbital(  10) could not be determined
 Warning : Irrep of orbital(  11) could not be determined
 Warning : Irrep of orbital(  12) could not be determined
 Warning : Irrep of orbital(  13) could not be determined
 Warning : Irrep of orbital(  14) could not be determined
 Warning : Irrep of orbital(  15) could not be determined
 Warning : Irrep of orbital(  16) could not be determined
 Warning : Irrep of orbital(  17) could not be determined
 Warning : Irrep of orbital(  18) could not be determined
 Warning : Irrep of orbital(  19) could not be determined
 Warning : Irrep of orbital(  20) could not be determined
 Warning : Irrep of orbital(  21) could not be determined
 Warning : Irrep of orbital(  22) could not be determined
 Warning : Irrep of orbital(  23) could not be determined
 Warning : Irrep of orbital(  24) could not be determined
 Warning : Irrep of orbital(  25) could not be determined
 Warning : Irrep of orbital(  26) could not be determined
 Warning : Irrep of orbital(  27) could not be determined
 Warning : Irrep of orbital(  31) could not be determined
 Warning : Irrep of orbital(  32) could not be determined
 Warning : Irrep of orbital(  33) could not be determined
 Warning : Irrep of orbital(  34) could not be determined
 Warning : Irrep of orbital(  35) could not be determined
 Warning : Irrep of orbital(  36) could not be determined
 Warning : Irrep of orbital(  37) could not be determined
 Warning : Irrep of orbital(  38) could not be determined
 Warning : Irrep of orbital(  39) could not be determined
 Warning : Irrep of orbital(  40) could not be determined
 Warning : Irrep of orbital(  41) could not be determined
 Warning : Irrep of orbital(  42) could not be determined
 Warning : Irrep of orbital(  43) could not be determined
 Warning : Irrep of orbital(  44) could not be determined
 Warning : Irrep of orbital(  45) could not be determined
 Warning : Irrep of orbital(  48) could not be determined
 Warning : Irrep of orbital(  49) could not be determined
 Warning : Irrep of orbital(  50) could not be determined
 Warning : Irrep of orbital(  51) could not be determined
 Warning : Irrep of orbital(  52) could not be determined
 Warning : Irrep of orbital(  53) could not be determined
 Warning : Irrep of orbital(  54) could not be determined
 Warning : Irrep of orbital(  55) could not be determined
 Warning : Irrep of orbital(  56) could not be determined
 Warning : Irrep of orbital(  57) could not be determined
 Warning : Irrep of orbital(  58) could not be determined
 Warning : Irrep of orbital(  59) could not be determined
 Warning : Irrep of orbital(  60) could not be determined
 Warning : Irrep of orbital(  61) could not be determined
 Warning : Irrep of orbital(  62) could not be determined
 Warning : Irrep of orbital(  63) could not be determined
 Warning : Irrep of orbital(  64) could not be determined
 Warning : Irrep of orbital(  65) could not be determined
 Warning : Irrep of orbital(  66) could not be determined
 Warning : Irrep of orbital(  67) could not be determined
 Warning : Irrep of orbital(  68) could not be determined
 Warning : Irrep of orbital(  70) could not be determined
 Warning : Irrep of orbital(  71) could not be determined
 Warning : Irrep of orbital(  72) could not be determined
 Warning : Irrep of orbital(  73) could not be determined
 Warning : Irrep of orbital(  74) could not be determined
 Warning : Irrep of orbital(  75) could not be determined
 Warning : Irrep of orbital(  76) could not be determined
 Warning : Irrep of orbital(  77) could not be determined
 Warning : Irrep of orbital(  78) could not be determined
 Warning : Irrep of orbital(  79) could not be determined
 Warning : Irrep of orbital(  80) could not be determined
 Warning : Irrep of orbital(  81) could not be determined
 Warning : Irrep of orbital(  82) could not be determined
 Warning : Irrep of orbital(  83) could not be determined
 Warning : Irrep of orbital(  84) could not be determined
 Warning : Irrep of orbital(  85) could not be determined
 Warning : Irrep of orbital(  86) could not be determined
 Warning : Irrep of orbital(  87) could not be determined
 Warning : Irrep of orbital(  88) could not be determined
 Warning : Irrep of orbital(  89) could not be determined
 Warning : Irrep of orbital(  91) could not be determined
 Warning : Irrep of orbital(  92) could not be determined
 Warning : Irrep of orbital(  93) could not be determined
 Warning : Irrep of orbital(  94) could not be determined
 Warning : Irrep of orbital(  95) could not be determined
 Warning : Irrep of orbital(  96) could not be determined
 Warning : Irrep of orbital(  97) could not be determined
 Warning : Irrep of orbital(  98) could not be determined
 Warning : Irrep of orbital(  99) could not be determined
 Warning : Irrep of orbital( 100) could not be determined
 Warning : Irrep of orbital( 101) could not be determined
 Warning : Irrep of orbital( 102) could not be determined
 Warning : Irrep of orbital( 103) could not be determined
 Warning : Irrep of orbital( 104) could not be determined
 Warning : Irrep of orbital( 105) could not be determined
 Warning : Irrep of orbital( 106) could not be determined
 Warning : Irrep of orbital( 107) could not be determined
 Warning : Irrep of orbital( 108) could not be determined
 Warning : Irrep of orbital( 109) could not be determined
 Warning : Irrep of orbital( 112) could not be determined
 Warning : Irrep of orbital( 113) could not be determined
 Warning : Irrep of orbital( 114) could not be determined
 Warning : Irrep of orbital( 115) could not be determined
 Warning : Irrep of orbital( 117) could not be determined
 Warning : Irrep of orbital( 118) could not be determined
 Warning : Irrep of orbital( 121) could not be determined
 Warning : Irrep of orbital( 122) could not be determined
 Warning : Irrep of orbital( 123) could not be determined
 Warning : Irrep of orbital( 124) could not be determined
 Warning : Irrep of orbital( 125) could not be determined
 Warning : Irrep of orbital( 129) could not be determined
 Warning : Irrep of orbital( 130) could not be determined
 Warning : Irrep of orbital( 131) could not be determined
 Warning : Irrep of orbital( 132) could not be determined
 Warning : Irrep of orbital( 133) could not be determined
 Warning : Irrep of orbital( 136) could not be determined
 Warning : Irrep of orbital( 137) could not be determined
 Warning : Irrep of orbital( 138) could not be determined
 Warning : Irrep of orbital( 139) could not be determined
 Warning : Irrep of orbital( 140) could not be determined
 Warning : Irrep of orbital( 141) could not be determined
 Warning : Irrep of orbital( 142) could not be determined
 Warning : Irrep of orbital( 143) could not be determined
 Warning : Irrep of orbital( 144) could not be determined
 Warning : Irrep of orbital( 145) could not be determined
 Warning : Irrep of orbital( 146) could not be determined
 Warning : Irrep of orbital( 147) could not be determined
 Warning : Irrep of orbital( 151) could not be determined
 Warning : Irrep of orbital( 152) could not be determined
 Warning : Irrep of orbital( 154) could not be determined
 Warning : Irrep of orbital( 155) could not be determined
 Warning : Irrep of orbital( 156) could not be determined
 Warning : Irrep of orbital( 157) could not be determined
 Warning : Irrep of orbital( 158) could not be determined
 Warning : Irrep of orbital( 159) could not be determined
 Warning : Irrep of orbital( 161) could not be determined
 Warning : Irrep of orbital( 162) could not be determined
 Warning : Irrep of orbital( 163) could not be determined
 Warning : Irrep of orbital( 164) could not be determined
 Warning : Irrep of orbital( 166) could not be determined
 Warning : Irrep of orbital( 167) could not be determined
 Warning : Irrep of orbital( 170) could not be determined
 Warning : Irrep of orbital( 171) could not be determined
 Warning : Irrep of orbital( 173) could not be determined
 Warning : Irrep of orbital( 174) could not be determined
 Warning : Irrep of orbital( 175) could not be determined
 Warning : Irrep of orbital( 176) could not be determined
 Warning : Irrep of orbital( 179) could not be determined
 Warning : Irrep of orbital( 180) could not be determined
 Warning : Irrep of orbital( 181) could not be determined
 Warning : Irrep of orbital( 182) could not be determined
 Warning : Irrep of orbital( 185) could not be determined
 Warning : Irrep of orbital( 186) could not be determined
 Warning : Irrep of orbital( 188) could not be determined
 Warning : Irrep of orbital( 189) could not be determined
 Warning : Irrep of orbital( 190) could not be determined
 Warning : Irrep of orbital( 191) could not be determined
 Warning : Irrep of orbital( 192) could not be determined
 Warning : Irrep of orbital( 194) could not be determined
 Warning : Irrep of orbital( 195) could not be determined
 Warning : Irrep of orbital( 197) could not be determined
 Warning : Irrep of orbital( 198) could not be determined
 Warning : Irrep of orbital( 199) could not be determined
 Warning : Irrep of orbital( 200) could not be determined
 Warning : Irrep of orbital( 201) could not be determined
 Warning : Irrep of orbital( 202) could not be determined
 Warning : Irrep of orbital( 203) could not be determined
 Warning : Irrep of orbital( 204) could not be determined
 Warning : Irrep of orbital( 205) could not be determined
 Warning : Irrep of orbital( 207) could not be determined
 Warning : Irrep of orbital( 208) could not be determined
 Warning : Irrep of orbital( 209) could not be determined
 Warning : Irrep of orbital( 212) could not be determined
 Warning : Irrep of orbital( 213) could not be determined
 Warning : Irrep of orbital( 214) could not be determined
 Warning : Irrep of orbital( 215) could not be determined
 Warning : Irrep of orbital( 217) could not be determined
 Warning : Irrep of orbital( 218) could not be determined
 Warning : Irrep of orbital( 219) could not be determined
 Warning : Irrep of orbital( 220) could not be determined
 Warning : Irrep of orbital( 222) could not be determined
 Warning : Irrep of orbital( 223) could not be determined
 Warning : Irrep of orbital( 226) could not be determined
 Warning : Irrep of orbital( 227) could not be determined
 Warning : Irrep of orbital( 230) could not be determined
 Warning : Irrep of orbital( 231) could not be determined
 Warning : Irrep of orbital( 232) could not be determined
 Warning : Irrep of orbital( 234) could not be determined
 Warning : Irrep of orbital( 235) could not be determined
 Warning : Irrep of orbital( 236) could not be determined
 Warning : Irrep of orbital( 237) could not be determined
 Warning : Irrep of orbital( 238) could not be determined
 Warning : Irrep of orbital( 239) could not be determined
 Warning : Irrep of orbital( 242) could not be determined
 Warning : Irrep of orbital( 243) could not be determined
 Warning : Irrep of orbital( 244) could not be determined
 Warning : Irrep of orbital( 245) could not be determined
 Warning : Irrep of orbital( 247) could not be determined
 Warning : Irrep of orbital( 248) could not be determined
 Warning : Irrep of orbital( 251) could not be determined
 Warning : Irrep of orbital( 252) could not be determined
 Warning : Irrep of orbital( 253) could not be determined
 Warning : Irrep of orbital( 254) could not be determined
 Warning : Irrep of orbital( 255) could not be determined
 Warning : Irrep of orbital( 256) could not be determined
 Warning : Irrep of orbital( 257) could not be determined
 Warning : Irrep of orbital( 258) could not be determined
 Warning : Irrep of orbital( 259) could not be determined
 Warning : Irrep of orbital( 262) could not be determined
 Warning : Irrep of orbital( 263) could not be determined
 Warning : Irrep of orbital( 264) could not be determined
 Warning : Irrep of orbital( 265) could not be determined
 Warning : Irrep of orbital( 266) could not be determined
 Warning : Irrep of orbital( 270) could not be determined
 Warning : Irrep of orbital( 271) could not be determined
 Warning : Irrep of orbital( 272) could not be determined
 Warning : Irrep of orbital( 273) could not be determined
 Warning : Irrep of orbital( 274) could not be determined
 Warning : Irrep of orbital( 276) could not be determined
 Warning : Irrep of orbital( 277) could not be determined
 Warning : Irrep of orbital( 278) could not be determined
 Warning : Irrep of orbital( 279) could not be determined
 Warning : Irrep of orbital( 280) could not be determined
 Warning : Irrep of orbital( 281) could not be determined
 Warning : Irrep of orbital( 283) could not be determined
 Warning : Irrep of orbital( 284) could not be determined
 Warning : Irrep of orbital( 285) could not be determined
 Warning : Irrep of orbital( 287) could not be determined
 Warning : Irrep of orbital( 288) could not be determined
 Warning : Irrep of orbital( 289) could not be determined
 Warning : Irrep of orbital( 290) could not be determined
 Warning : Irrep of orbital( 291) could not be determined
 Warning : Irrep of orbital( 292) could not be determined
 Warning : Irrep of orbital( 293) could not be determined
 Warning : Irrep of orbital( 295) could not be determined
 Warning : Irrep of orbital( 296) could not be determined
 Warning : Irrep of orbital( 297) could not be determined
 Warning : Irrep of orbital( 298) could not be determined
 Warning : Irrep of orbital( 299) could not be determined
 Warning : Irrep of orbital( 300) could not be determined
 Warning : Irrep of orbital( 301) could not be determined
 Warning : Irrep of orbital( 302) could not be determined
 Warning : Irrep of orbital( 303) could not be determined
 Warning : Irrep of orbital( 304) could not be determined
 Warning : Irrep of orbital( 305) could not be determined
 Warning : Irrep of orbital( 307) could not be determined
 Warning : Irrep of orbital( 308) could not be determined
 Warning : Irrep of orbital( 309) could not be determined
 Warning : Irrep of orbital( 310) could not be determined
 Warning : Irrep of orbital( 311) could not be determined
 Warning : Irrep of orbital( 312) could not be determined
 Warning : Irrep of orbital( 315) could not be determined
 Warning : Irrep of orbital( 316) could not be determined
 Warning : Irrep of orbital( 317) could not be determined
 Warning : Irrep of orbital( 319) could not be determined
 Warning : Irrep of orbital( 320) could not be determined
 Warning : Irrep of orbital( 321) could not be determined
 Warning : Irrep of orbital( 322) could not be determined
 Warning : Irrep of orbital( 324) could not be determined
 Warning : Irrep of orbital( 325) could not be determined
 Warning : Irrep of orbital( 328) could not be determined
 Warning : Irrep of orbital( 329) could not be determined
 Warning : Irrep of orbital( 331) could not be determined
 Warning : Irrep of orbital( 332) could not be determined
 Warning : Irrep of orbital( 334) could not be determined
 Warning : Irrep of orbital( 335) could not be determined
 Warning : Irrep of orbital( 338) could not be determined
 Warning : Irrep of orbital( 339) could not be determined
 Warning : Irrep of orbital( 340) could not be determined
 Warning : Irrep of orbital( 341) could not be determined
 Warning : Irrep of orbital( 342) could not be determined
 Warning : Irrep of orbital( 343) could not be determined
 Warning : Irrep of orbital( 344) could not be determined
 Warning : Irrep of orbital( 345) could not be determined
 Warning : Irrep of orbital( 346) could not be determined
 Warning : Irrep of orbital( 348) could not be determined
 Warning : Irrep of orbital( 349) could not be determined
 Warning : Irrep of orbital( 351) could not be determined
 Warning : Irrep of orbital( 352) could not be determined
 Warning : Irrep of orbital( 354) could not be determined
 Warning : Irrep of orbital( 355) could not be determined
 Warning : Irrep of orbital( 356) could not be determined
 Warning : Irrep of orbital( 357) could not be determined
 Warning : Irrep of orbital( 359) could not be determined
 Warning : Irrep of orbital( 360) could not be determined
 Warning : Irrep of orbital( 361) could not be determined
 Warning : Irrep of orbital( 363) could not be determined
 Warning : Irrep of orbital( 364) could not be determined
 Warning : Irrep of orbital( 365) could not be determined
 Warning : Irrep of orbital( 366) could not be determined
 Warning : Irrep of orbital( 368) could not be determined
 Warning : Irrep of orbital( 369) could not be determined
 Warning : Irrep of orbital( 371) could not be determined
 Warning : Irrep of orbital( 372) could not be determined
 Warning : Irrep of orbital( 373) could not be determined
 Warning : Irrep of orbital( 374) could not be determined
 Warning : Irrep of orbital( 375) could not be determined
 Warning : Irrep of orbital( 377) could not be determined
 Warning : Irrep of orbital( 378) could not be determined
 Warning : Irrep of orbital( 379) could not be determined
 Warning : Irrep of orbital( 380) could not be determined
 Warning : Irrep of orbital( 381) could not be determined
 Warning : Irrep of orbital( 382) could not be determined
 Warning : Irrep of orbital( 383) could not be determined
 Warning : Irrep of orbital( 386) could not be determined
 Warning : Irrep of orbital( 387) could not be determined
 Warning : Irrep of orbital( 388) could not be determined
 Warning : Irrep of orbital( 389) could not be determined
 Warning : Irrep of orbital( 390) could not be determined
 Warning : Irrep of orbital( 392) could not be determined
 Warning : Irrep of orbital( 393) could not be determined
 Warning : Irrep of orbital( 394) could not be determined
 Warning : Irrep of orbital( 395) could not be determined
 Warning : Irrep of orbital( 396) could not be determined
 Warning : Irrep of orbital( 398) could not be determined
 Warning : Irrep of orbital( 399) could not be determined
 Warning : Irrep of orbital( 400) could not be determined
 Warning : Irrep of orbital( 401) could not be determined
 Warning : Irrep of orbital( 402) could not be determined
 Warning : Irrep of orbital( 403) could not be determined
 Warning : Irrep of orbital( 404) could not be determined
 Warning : Irrep of orbital( 406) could not be determined
 Warning : Irrep of orbital( 407) could not be determined
 Warning : Irrep of orbital( 408) could not be determined
 Warning : Irrep of orbital( 409) could not be determined
 Warning : Irrep of orbital( 410) could not be determined
 Warning : Irrep of orbital( 411) could not be determined
 Warning : Irrep of orbital( 412) could not be determined
 Warning : Irrep of orbital( 413) could not be determined
 Warning : Irrep of orbital( 414) could not be determined
 Warning : Irrep of orbital( 415) could not be determined
 Warning : Irrep of orbital( 419) could not be determined
 Warning : Irrep of orbital( 420) could not be determined
 Warning : Irrep of orbital( 421) could not be determined
 Warning : Irrep of orbital( 422) could not be determined
 Warning : Irrep of orbital( 423) could not be determined
 Warning : Irrep of orbital( 425) could not be determined
 Warning : Irrep of orbital( 426) could not be determined
 Warning : Irrep of orbital( 427) could not be determined
 Warning : Irrep of orbital( 428) could not be determined
 Warning : Irrep of orbital( 429) could not be determined
 Warning : Irrep of orbital( 430) could not be determined
 Warning : Irrep of orbital( 432) could not be determined
 Warning : Irrep of orbital( 433) could not be determined
 Warning : Irrep of orbital( 434) could not be determined
 Warning : Irrep of orbital( 437) could not be determined
 Warning : Irrep of orbital( 438) could not be determined
 Warning : Irrep of orbital( 439) could not be determined
 Warning : Irrep of orbital( 440) could not be determined
 Warning : Irrep of orbital( 443) could not be determined
 Warning : Irrep of orbital( 444) could not be determined
 Warning : Irrep of orbital( 445) could not be determined
 Warning : Irrep of orbital( 446) could not be determined
 Warning : Irrep of orbital( 448) could not be determined
 Warning : Irrep of orbital( 449) could not be determined
 Warning : Irrep of orbital( 450) could not be determined
 Warning : Irrep of orbital( 451) could not be determined
 Warning : Irrep of orbital( 452) could not be determined
 Warning : Irrep of orbital( 453) could not be determined
 Warning : Irrep of orbital( 454) could not be determined
 Warning : Irrep of orbital( 455) could not be determined
 Warning : Irrep of orbital( 456) could not be determined
 Warning : Irrep of orbital( 457) could not be determined
 Warning : Irrep of orbital( 458) could not be determined
 Warning : Irrep of orbital( 461) could not be determined
 Warning : Irrep of orbital( 462) could not be determined
 Warning : Irrep of orbital( 464) could not be determined
 Warning : Irrep of orbital( 465) could not be determined
 Warning : Irrep of orbital( 466) could not be determined
 Warning : Irrep of orbital( 467) could not be determined
 Warning : Irrep of orbital( 469) could not be determined
 Warning : Irrep of orbital( 471) could not be determined
 Warning : Irrep of orbital( 472) could not be determined
 Warning : Irrep of orbital( 473) could not be determined
 Warning : Irrep of orbital( 475) could not be determined
 Warning : Irrep of orbital( 476) could not be determined
 Warning : Irrep of orbital( 477) could not be determined
 Warning : Irrep of orbital( 478) could not be determined
 Warning : Irrep of orbital( 480) could not be determined
 Warning : Irrep of orbital( 481) could not be determined
 Warning : Irrep of orbital( 482) could not be determined
 Warning : Irrep of orbital( 483) could not be determined
 Warning : Irrep of orbital( 485) could not be determined
 Warning : Irrep of orbital( 486) could not be determined
 Warning : Irrep of orbital( 487) could not be determined
 Warning : Irrep of orbital( 492) could not be determined
 Warning : Irrep of orbital( 493) could not be determined
 Warning : Irrep of orbital( 494) could not be determined
 Warning : Irrep of orbital( 495) could not be determined
 Warning : Irrep of orbital( 496) could not be determined
 Warning : Irrep of orbital( 497) could not be determined
 Warning : Irrep of orbital( 498) could not be determined
 Warning : Irrep of orbital( 499) could not be determined
 Warning : Irrep of orbital( 502) could not be determined
 Warning : Irrep of orbital( 503) could not be determined
 Warning : Irrep of orbital( 504) could not be determined
 Warning : Irrep of orbital( 505) could not be determined
 Warning : Irrep of orbital( 506) could not be determined
 Warning : Irrep of orbital( 509) could not be determined
 Warning : Irrep of orbital( 510) could not be determined
 Warning : Irrep of orbital( 511) could not be determined
 Warning : Irrep of orbital( 512) could not be determined
 Warning : Irrep of orbital( 513) could not be determined
 Warning : Irrep of orbital( 515) could not be determined
 Warning : Irrep of orbital( 516) could not be determined
 Warning : Irrep of orbital( 519) could not be determined
 Warning : Irrep of orbital( 520) could not be determined
 Warning : Irrep of orbital( 521) could not be determined
 Warning : Irrep of orbital( 522) could not be determined
 Warning : Irrep of orbital( 523) could not be determined
 Warning : Irrep of orbital( 524) could not be determined
 Warning : Irrep of orbital( 525) could not be determined
 Warning : Irrep of orbital( 526) could not be determined
 Warning : Irrep of orbital( 527) could not be determined
 Warning : Irrep of orbital( 528) could not be determined
 Warning : Irrep of orbital( 529) could not be determined
 Warning : Irrep of orbital( 530) could not be determined
 Warning : Irrep of orbital( 531) could not be determined
 Warning : Irrep of orbital( 532) could not be determined
 Warning : Irrep of orbital( 533) could not be determined
 Warning : Irrep of orbital( 534) could not be determined
 Warning : Irrep of orbital( 535) could not be determined
 Warning : Irrep of orbital( 536) could not be determined
 Warning : Irrep of orbital( 537) could not be determined
 Warning : Irrep of orbital( 538) could not be determined
 Warning : Irrep of orbital( 539) could not be determined
 Warning : Irrep of orbital( 540) could not be determined
 Warning : Irrep of orbital( 541) could not be determined
 Warning : Irrep of orbital( 542) could not be determined
 Warning : Irrep of orbital( 543) could not be determined
 Warning : Irrep of orbital( 544) could not be determined
 Warning : Irrep of orbital( 546) could not be determined
 Warning : Irrep of orbital( 548) could not be determined
 Warning : Irrep of orbital( 549) could not be determined
 Warning : Irrep of orbital( 550) could not be determined
 Warning : Irrep of orbital( 551) could not be determined
 Warning : Irrep of orbital( 553) could not be determined
 Warning : Irrep of orbital( 554) could not be determined
 Warning : Irrep of orbital( 555) could not be determined
 Warning : Irrep of orbital( 556) could not be determined
 Warning : Irrep of orbital( 557) could not be determined
 Warning : Irrep of orbital( 558) could not be determined
 Warning : Irrep of orbital( 559) could not be determined
 Warning : Irrep of orbital( 561) could not be determined
 Warning : Irrep of orbital( 562) could not be determined
 Warning : Irrep of orbital( 564) could not be determined
 Warning : Irrep of orbital( 565) could not be determined
 Warning : Irrep of orbital( 566) could not be determined
 Warning : Irrep of orbital( 567) could not be determined
 Warning : Irrep of orbital( 568) could not be determined
 Warning : Irrep of orbital( 569) could not be determined
 Warning : Irrep of orbital( 570) could not be determined
 Warning : Irrep of orbital( 571) could not be determined
 Warning : Irrep of orbital( 572) could not be determined
 Warning : Irrep of orbital( 573) could not be determined
 Warning : Irrep of orbital( 574) could not be determined
 Warning : Irrep of orbital( 575) could not be determined
 Warning : Irrep of orbital( 576) could not be determined
 Warning : Irrep of orbital( 577) could not be determined
 Warning : Irrep of orbital( 578) could not be determined
 Warning : Irrep of orbital( 579) could not be determined
 Warning : Irrep of orbital( 580) could not be determined
 Warning : Irrep of orbital( 581) could not be determined
 Warning : Irrep of orbital( 582) could not be determined
 Warning : Irrep of orbital( 583) could not be determined
 Warning : Irrep of orbital( 585) could not be determined
 Warning : Irrep of orbital( 586) could not be determined
 Warning : Irrep of orbital( 587) could not be determined
 Warning : Irrep of orbital( 588) could not be determined
 Warning : Irrep of orbital( 589) could not be determined
 Warning : Irrep of orbital( 590) could not be determined
 Warning : Irrep of orbital( 591) could not be determined
 Warning : Irrep of orbital( 592) could not be determined
 Warning : Irrep of orbital( 593) could not be determined
 Warning : Irrep of orbital( 594) could not be determined
 Warning : Irrep of orbital( 595) could not be determined
 Warning : Irrep of orbital( 596) could not be determined
 Warning : Irrep of orbital( 597) could not be determined
 Warning : Irrep of orbital( 598) could not be determined
 Warning : Irrep of orbital( 599) could not be determined
 Warning : Irrep of orbital( 600) could not be determined
 Warning : Irrep of orbital( 601) could not be determined
 Warning : Irrep of orbital( 602) could not be determined
 Warning : Irrep of orbital( 603) could not be determined
 Warning : Irrep of orbital( 606) could not be determined
 Warning : Irrep of orbital( 607) could not be determined
 Warning : Irrep of orbital( 608) could not be determined
 Warning : Irrep of orbital( 609) could not be determined
 Warning : Irrep of orbital( 610) could not be determined
 Warning : Irrep of orbital( 611) could not be determined
 Warning : Irrep of orbital( 612) could not be determined
 Warning : Irrep of orbital( 613) could not be determined
 Warning : Irrep of orbital( 615) could not be determined
 Warning : Irrep of orbital( 616) could not be determined
 Warning : Irrep of orbital( 617) could not be determined
 Warning : Irrep of orbital( 618) could not be determined
 Warning : Irrep of orbital( 619) could not be determined
 Warning : Irrep of orbital( 620) could not be determined
 Warning : Irrep of orbital( 621) could not be determined
 Warning : Irrep of orbital( 624) could not be determined
 Warning : Irrep of orbital( 625) could not be determined
 Warning : Irrep of orbital( 626) could not be determined
 Warning : Irrep of orbital( 627) could not be determined
 Warning : Irrep of orbital( 628) could not be determined
 Warning : Irrep of orbital( 629) could not be determined
 Warning : Irrep of orbital( 630) could not be determined
 Warning : Irrep of orbital( 632) could not be determined
 Warning : Irrep of orbital( 633) could not be determined
 Warning : Irrep of orbital( 635) could not be determined
 Warning : Irrep of orbital( 636) could not be determined
 Warning : Irrep of orbital( 637) could not be determined
 Warning : Irrep of orbital( 638) could not be determined
 Warning : Irrep of orbital( 640) could not be determined
 Warning : Irrep of orbital( 641) could not be determined
 Warning : Irrep of orbital( 642) could not be determined
 Warning : Irrep of orbital( 643) could not be determined
 Warning : Irrep of orbital( 645) could not be determined
 Warning : Irrep of orbital( 646) could not be determined
 Warning : Irrep of orbital( 647) could not be determined
 
 Alpha MOs, Unrestricted
 -- Occupied --                  
-255.58 -255.58  -29.99  -29.99  -25.78  -25.78  -25.77  -25.77
  1 A     2 A     3 A     4 A     0 xxx   0 xxx   0 xxx   0 xxx                
-25.773 -25.772 -19.068 -19.068 -19.064 -19.063 -19.063 -19.063
  0 xxx   0 xxx   0 xxx   0 xxx   0 xxx   0 xxx   0 xxx   0 xxx                
-19.054 -19.030 -19.029 -10.182 -10.182 -10.179 -10.178 -10.178
  0 xxx   0 xxx   0 xxx   0 xxx   0 xxx   0 xxx   0 xxx   0 xxx                
-10.178 -10.175 -10.163 -10.163  -3.487  -3.486  -2.243  -2.241
  0 xxx   0 xxx   0 xxx   1 E     1 E     5 A     0 xxx   0 xxx                
 -2.232  -2.228  -2.224  -2.224  -1.128  -1.128  -1.124  -1.124
  0 xxx   0 xxx   0 xxx   0 xxx   0 xxx   0 xxx   0 xxx   0 xxx                
 -1.124  -1.123  -1.112  -1.090  -1.089  -0.627  -0.580  -0.561
  0 xxx   0 xxx   0 xxx   0 xxx   0 xxx   6 A     7 A     0 xxx                
 -0.552  -0.551  -0.550  -0.548  -0.545  -0.541  -0.480  -0.475
  0 xxx   0 xxx   0 xxx   0 xxx   0 xxx   0 xxx   0 xxx   0 xxx                
 -0.465  -0.463  -0.461  -0.461  -0.459  -0.458  -0.452  -0.451
  0 xxx   0 xxx   0 xxx   0 xxx   0 xxx   0 xxx   0 xxx   0 xxx                
 -0.448  -0.445  -0.442  -0.441  -0.439  -0.437  -0.434  -0.429
  0 xxx   0 xxx   0 xxx   0 xxx   8 A     0 xxx   0 xxx   0 xxx                
 -0.428  -0.427  -0.425  -0.420  -0.420  -0.415  -0.402  -0.393
  0 xxx   0 xxx   0 xxx   0 xxx   0 xxx   0 xxx   0 xxx   0 xxx                
 -0.393  -0.291  -0.287  -0.284  -0.273  -0.271  -0.263  -0.231
  0 xxx   0 xxx   0 xxx   0 xxx   0 xxx   0 xxx   0 xxx   0 xxx                
 -0.214  -0.113
  0 xxx   9 A                                                                  
 -- Virtual --                   
 -0.106  -0.103  -0.082  -0.080  -0.076  -0.071  -0.071  -0.069
  0 xxx   0 xxx   0 xxx   0 xxx   0 xxx   0 xxx   0 xxx   0 xxx                
 -0.069  -0.066  -0.058  -0.052  -0.048  -0.046  -0.037  -0.036
  0 xxx   0 xxx   0 xxx   0 xxx   0 xxx   0 xxx   0 xxx   0 xxx                
 -0.015  -0.014  -0.004   0.022   0.043   0.103   0.105   0.144
  0 xxx   0 xxx   0 xxx  10 A    11 A     0 xxx   0 xxx   0 xxx                
  0.146   0.149   0.165   0.165   0.205   0.212   0.222   0.224
  0 xxx  12 A     0 xxx   0 xxx  13 A    14 A     0 xxx   0 xxx                
  0.230   0.231   0.232   0.253   0.281   0.289   0.291   0.293
  0 xxx   0 xxx   0 xxx  15 A    16 A    17 A     0 xxx   0 xxx                
  0.294   0.297   0.299   0.312   0.321   0.326   0.326   0.327
  0 xxx   0 xxx   0 xxx  18 A    19 A     0 xxx   0 xxx   0 xxx                
  0.328   0.328   0.353   0.358   0.362   0.363   0.364   0.403
  0 xxx   0 xxx   0 xxx   0 xxx   0 xxx   0 xxx   0 xxx   0 xxx                
  0.404   0.419   0.424   0.429   0.435   0.438   0.439   0.446
  0 xxx  20 A    21 A    22 A     0 xxx   0 xxx  23 A     0 xxx                
  0.447   0.448   0.450   0.455   0.459   0.476   0.478   0.480
  0 xxx   0 xxx   0 xxx   0 xxx   0 xxx  24 A     0 xxx   0 xxx                
  0.492   0.493   0.503   0.511   0.513   0.521   0.523   0.529
  0 xxx   0 xxx  25 A     0 xxx   0 xxx  26 A    27 A     0 xxx                
  0.530   0.537   0.546   0.551   0.569   0.570   0.575   0.584
  0 xxx  28 A     0 xxx   0 xxx   0 xxx   0 xxx  29 A    30 A                  
  0.609   0.609   0.613   0.614   0.625   0.634   0.660   0.662
  0 xxx   0 xxx   0 xxx   0 xxx  31 A    32 A     0 xxx   0 xxx                
  0.679   0.684   0.686   0.689   0.692   0.692   0.694   0.717
 33 A     0 xxx   0 xxx   0 xxx   0 xxx   0 xxx  34 A     0 xxx                
  0.717   0.724   0.738   0.742   0.766   0.769   0.775   0.775
  0 xxx  35 A     0 xxx   0 xxx   0 xxx   0 xxx   0 xxx   0 xxx                
  0.775   0.785   0.787   0.788   0.795   0.797   0.799   0.824
  0 xxx   0 xxx   0 xxx  36 A     0 xxx   0 xxx   0 xxx  37 A                  
  0.837   0.847   0.850   0.860   0.862   0.867   0.877   0.878
 38 A     0 xxx   0 xxx   0 xxx   0 xxx  39 A     0 xxx   0 xxx                
  0.885   0.886   0.892   0.929   0.933   0.934   0.938   0.977
  0 xxx   0 xxx  40 A     0 xxx   0 xxx  41 A    42 A     0 xxx                
  0.981   0.992   1.027   1.045   1.050   1.071   1.077   1.086
  0 xxx  43 A    44 A     0 xxx   0 xxx   0 xxx  45 A     0 xxx                
  1.087   1.090   1.092   1.118   1.121   1.122   1.147   1.158
  0 xxx   0 xxx   0 xxx   0 xxx   0 xxx  46 A    47 A     0 xxx                
  1.159   1.216   1.217   1.222   1.236   1.241   1.244   1.266
  0 xxx   0 xxx   0 xxx  48 A     0 xxx   0 xxx  49 A    50 A                  
  1.296   1.302   1.303   1.306   1.312   1.343   1.347   1.353
  0 xxx   0 xxx   0 xxx   0 xxx   0 xxx   0 xxx   0 xxx   0 xxx                
  1.355   1.365   1.375   1.385   1.386   1.389   1.393   1.394
  0 xxx  51 A    52 A     0 xxx   0 xxx   0 xxx   0 xxx   0 xxx                
  1.396   1.414   1.427   1.470   1.475   1.477   1.497   1.497
 53 A    54 A    55 A     0 xxx   0 xxx   0 xxx   0 xxx   0 xxx                
  1.499   1.506   1.511   1.536   1.538   1.543   1.545   1.546
 56 A     0 xxx   0 xxx   0 xxx   0 xxx   0 xxx   0 xxx  57 A                  
  1.547   1.570   1.573   1.580   1.588   1.594   1.619   1.620
  0 xxx   0 xxx   0 xxx  58 A     0 xxx   0 xxx   0 xxx   0 xxx                
  1.623   1.623   1.625   1.664   1.669   1.673   1.673   1.681
  0 xxx   0 xxx   0 xxx  59 A     0 xxx   0 xxx   0 xxx   0 xxx                
  1.687   1.688   1.774   1.780   1.804   1.804   1.810   1.870
  0 xxx   0 xxx   0 xxx   0 xxx   0 xxx   0 xxx   0 xxx  60 A                  
  1.925   1.927   1.948   1.951   1.995   2.003   2.005   2.006
  0 xxx   0 xxx   0 xxx   0 xxx   0 xxx   0 xxx  61 A    62 A                  
  2.018   2.019   2.020   2.055   2.065   2.068   2.071   2.074
  0 xxx   0 xxx   0 xxx  63 A     0 xxx   0 xxx   0 xxx   0 xxx                
  2.095   2.128   2.131   2.151   2.185   2.245   2.246   2.250
 64 A     0 xxx   0 xxx  65 A    66 A     0 xxx   0 xxx  67 A                  
  2.267   2.268   2.284   2.296   2.302   2.312   2.342   2.358
  0 xxx   0 xxx  68 A     0 xxx   0 xxx  69 A    70 A     0 xxx                
  2.362   2.407   2.412   2.412   2.433   2.441   2.448   2.450
  0 xxx   0 xxx   0 xxx   0 xxx   0 xxx   0 xxx   0 xxx   0 xxx                
  2.613   2.677   2.678   2.684   2.694   2.696   2.729   2.731
 71 A     0 xxx   0 xxx  72 A     0 xxx   0 xxx  73 A     0 xxx                
  2.733   2.733   2.734   2.738   2.749   2.750   2.750   2.755
  0 xxx   0 xxx   0 xxx  74 A     0 xxx   0 xxx   0 xxx  75 A                  
  2.772   2.776   2.782   2.784   2.796   2.798   2.800   2.832
  0 xxx   0 xxx   0 xxx   0 xxx  76 A     0 xxx   0 xxx  77 A                  
  2.843   2.844   2.845   2.845   2.847   2.851   2.853   2.856
  0 xxx   0 xxx   0 xxx   0 xxx   0 xxx  78 A     0 xxx   0 xxx                
  2.858   2.862   2.865   2.866   2.868   2.899   2.921   2.928
  0 xxx   0 xxx   0 xxx   0 xxx   0 xxx  79 A    80 A     0 xxx                
  2.932   2.937   2.944   2.973   2.977   2.983   2.983   2.991
  0 xxx   0 xxx   0 xxx   0 xxx  81 A     0 xxx   0 xxx   0 xxx                
  2.992   2.999   3.014   3.034   3.039   3.041   3.050   3.052
  0 xxx   0 xxx  82 A     0 xxx   0 xxx   0 xxx   0 xxx   0 xxx                
  3.057   3.060   3.063   3.085   3.085   3.086   3.087   3.093
  0 xxx   0 xxx  83 A     0 xxx   0 xxx   0 xxx   0 xxx   0 xxx                
  3.095   3.096   3.096   3.098   3.098   3.109   3.124   3.151
  0 xxx   0 xxx   0 xxx   0 xxx   0 xxx  84 A    85 A    86 A                  
  3.154   3.156   3.171   3.177   3.179   3.202   3.205   3.209
  0 xxx   0 xxx   0 xxx   0 xxx   0 xxx  87 A     0 xxx   0 xxx                
  3.210   3.219   3.229   3.230   3.251   3.261   3.262   3.284
  0 xxx   0 xxx   0 xxx   0 xxx  88 A     0 xxx   0 xxx   0 xxx                
  3.286   3.288   3.290   3.294   3.321   3.321   3.330   3.339
 89 A    90 A     0 xxx   0 xxx   0 xxx   0 xxx  91 A    92 A                  
  3.373   3.376   3.379   3.382   3.396   3.409   3.414   3.457
  0 xxx   0 xxx   0 xxx   0 xxx  93 A     0 xxx   0 xxx   0 xxx                
  3.468   3.479   3.482   3.492   3.492   3.517   3.519   3.544
  0 xxx   0 xxx   0 xxx   0 xxx   0 xxx   0 xxx   0 xxx   0 xxx                
  3.554   3.581   3.600   3.602   3.669   3.695   3.697   3.720
 94 A    95 A     0 xxx   0 xxx  96 A     0 xxx   0 xxx   0 xxx                
  3.722   3.728   3.759   3.761   3.761   3.785   3.790   3.795
  0 xxx  97 A     0 xxx  98 A     0 xxx   0 xxx   0 xxx  99 A                  
  3.806   3.809   3.850   3.856   3.887   3.951   3.958   3.962
  0 xxx   0 xxx   0 xxx   0 xxx 100 A     0 xxx   0 xxx   0 xxx                
  3.964   3.972   3.980   3.990   3.991   4.024   4.054   4.077
  0 xxx 101 A     0 xxx   0 xxx   0 xxx 102 A   103 A   104 A                  
  4.106   4.109   4.109   4.216   4.216   4.294   4.299   4.314
105 A     0 xxx   0 xxx   0 xxx   0 xxx   0 xxx   0 xxx   0 xxx                
  4.317   4.328   4.345   4.379   4.389   4.396   4.404   4.405
  0 xxx 106 A   107 A     0 xxx   0 xxx   0 xxx   0 xxx   0 xxx                
  4.412   4.442   4.469   4.478   4.574   4.574   4.579   4.656
108 A   109 A     0 xxx   0 xxx   0 xxx   0 xxx   0 xxx 110 A                  
  4.710   4.717   5.043   5.052   5.119   5.120   5.124   5.124
  0 xxx   0 xxx 111 A   112 A     0 xxx   0 xxx   0 xxx   0 xxx                
  5.213   5.214   5.214   5.214   5.216   5.217   5.217   5.217
  0 xxx   0 xxx   0 xxx   0 xxx   0 xxx   0 xxx   0 xxx   0 xxx                
  5.217   5.217   5.218   5.218   5.219   5.222   5.245   5.245
  0 xxx   0 xxx   0 xxx   0 xxx   0 xxx   0 xxx   0 xxx   0 xxx                
  5.247   5.254   5.583   5.595   5.597   5.602   5.603   5.605
  0 xxx   0 xxx   0 xxx   0 xxx   0 xxx   0 xxx 113 A     0 xxx                
  5.605   5.617   5.625   5.639   5.643   5.648   5.666   5.677
114 A     0 xxx   0 xxx   0 xxx   0 xxx 115 A     0 xxx   0 xxx                
  5.693   5.695   5.711   5.713   6.290   6.304   6.305   6.306
  0 xxx   0 xxx   0 xxx   0 xxx   0 xxx 116 A     0 xxx   0 xxx                
  6.334   6.350   6.351   6.352   6.354   6.354   6.354   6.355
117 A     0 xxx   0 xxx   0 xxx   0 xxx   0 xxx   0 xxx   0 xxx                
  6.355   6.358   6.358   6.360   6.362   6.368   6.369   6.397
  0 xxx   0 xxx   0 xxx   0 xxx   0 xxx   0 xxx   0 xxx   0 xxx                
  6.398   6.409   6.411   6.421   6.432   6.444   6.458   6.460
  0 xxx   0 xxx   0 xxx   0 xxx   0 xxx 118 A     0 xxx   0 xxx                
  6.464   6.483   6.492   6.505   6.506   6.514   6.525   6.532
  0 xxx   0 xxx   0 xxx   0 xxx   0 xxx   0 xxx   0 xxx   0 xxx                
  6.616   6.627   6.669   6.734   6.736   6.739   6.740   6.745
  0 xxx   0 xxx   0 xxx   0 xxx   0 xxx   0 xxx   0 xxx   0 xxx                
  6.747   6.855   6.858   6.881   6.883   6.891   6.892   6.896
  0 xxx 119 A   120 A     0 xxx   0 xxx   0 xxx   0 xxx   0 xxx                
  6.897   6.911   6.913   6.922   6.948   6.948   6.959   6.983
  0 xxx   0 xxx   0 xxx 121 A     0 xxx   0 xxx   0 xxx   0 xxx                
  6.991   7.021   7.036   7.161   7.185   7.209   7.216   7.219
  0 xxx   0 xxx   0 xxx 122 A   123 A     0 xxx   0 xxx   0 xxx                
  7.234   7.234   7.238   7.245  23.080  23.148  23.153  23.260
  0 xxx   0 xxx   0 xxx   0 xxx 124 A     0 xxx   0 xxx 125 A                  
 23.334  23.336  23.412  23.417  23.707  43.962  43.965  43.971
  0 xxx   0 xxx   0 xxx   0 xxx 126 A     0 xxx   0 xxx   0 xxx                
 43.973  44.052  44.059  44.062  44.075  44.171
  0 xxx 127 A     0 xxx   0 xxx   0 xxx 128 A                                  
 Warning : Irrep of orbital(   5) could not be determined
 Warning : Irrep of orbital(   6) could not be determined
 Warning : Irrep of orbital(   7) could not be determined
 Warning : Irrep of orbital(   8) could not be determined
 Warning : Irrep of orbital(   9) could not be determined
 Warning : Irrep of orbital(  10) could not be determined
 Warning : Irrep of orbital(  11) could not be determined
 Warning : Irrep of orbital(  12) could not be determined
 Warning : Irrep of orbital(  13) could not be determined
 Warning : Irrep of orbital(  14) could not be determined
 Warning : Irrep of orbital(  15) could not be determined
 Warning : Irrep of orbital(  16) could not be determined
 Warning : Irrep of orbital(  17) could not be determined
 Warning : Irrep of orbital(  18) could not be determined
 Warning : Irrep of orbital(  19) could not be determined
 Warning : Irrep of orbital(  20) could not be determined
 Warning : Irrep of orbital(  21) could not be determined
 Warning : Irrep of orbital(  22) could not be determined
 Warning : Irrep of orbital(  23) could not be determined
 Warning : Irrep of orbital(  24) could not be determined
 Warning : Irrep of orbital(  25) could not be determined
 Warning : Irrep of orbital(  26) could not be determined
 Warning : Irrep of orbital(  27) could not be determined
 Warning : Irrep of orbital(  31) could not be determined
 Warning : Irrep of orbital(  32) could not be determined
 Warning : Irrep of orbital(  33) could not be determined
 Warning : Irrep of orbital(  34) could not be determined
 Warning : Irrep of orbital(  35) could not be determined
 Warning : Irrep of orbital(  37) could not be determined
 Warning : Irrep of orbital(  38) could not be determined
 Warning : Irrep of orbital(  39) could not be determined
 Warning : Irrep of orbital(  40) could not be determined
 Warning : Irrep of orbital(  41) could not be determined
 Warning : Irrep of orbital(  42) could not be determined
 Warning : Irrep of orbital(  43) could not be determined
 Warning : Irrep of orbital(  44) could not be determined
 Warning : Irrep of orbital(  45) could not be determined
 Warning : Irrep of orbital(  48) could not be determined
 Warning : Irrep of orbital(  49) could not be determined
 Warning : Irrep of orbital(  50) could not be determined
 Warning : Irrep of orbital(  51) could not be determined
 Warning : Irrep of orbital(  52) could not be determined
 Warning : Irrep of orbital(  53) could not be determined
 Warning : Irrep of orbital(  54) could not be determined
 Warning : Irrep of orbital(  56) could not be determined
 Warning : Irrep of orbital(  57) could not be determined
 Warning : Irrep of orbital(  58) could not be determined
 Warning : Irrep of orbital(  59) could not be determined
 Warning : Irrep of orbital(  60) could not be determined
 Warning : Irrep of orbital(  61) could not be determined
 Warning : Irrep of orbital(  63) could not be determined
 Warning : Irrep of orbital(  64) could not be determined
 Warning : Irrep of orbital(  65) could not be determined
 Warning : Irrep of orbital(  66) could not be determined
 Warning : Irrep of orbital(  67) could not be determined
 Warning : Irrep of orbital(  69) could not be determined
 Warning : Irrep of orbital(  70) could not be determined
 Warning : Irrep of orbital(  71) could not be determined
 Warning : Irrep of orbital(  72) could not be determined
 Warning : Irrep of orbital(  73) could not be determined
 Warning : Irrep of orbital(  74) could not be determined
 Warning : Irrep of orbital(  75) could not be determined
 Warning : Irrep of orbital(  76) could not be determined
 Warning : Irrep of orbital(  77) could not be determined
 Warning : Irrep of orbital(  78) could not be determined
 Warning : Irrep of orbital(  80) could not be determined
 Warning : Irrep of orbital(  81) could not be determined
 Warning : Irrep of orbital(  82) could not be determined
 Warning : Irrep of orbital(  83) could not be determined
 Warning : Irrep of orbital(  84) could not be determined
 Warning : Irrep of orbital(  85) could not be determined
 Warning : Irrep of orbital(  86) could not be determined
 Warning : Irrep of orbital(  87) could not be determined
 Warning : Irrep of orbital(  88) could not be determined
 Warning : Irrep of orbital(  89) could not be determined
 Warning : Irrep of orbital(  90) could not be determined
 Warning : Irrep of orbital(  91) could not be determined
 Warning : Irrep of orbital(  93) could not be determined
 Warning : Irrep of orbital(  94) could not be determined
 Warning : Irrep of orbital(  95) could not be determined
 Warning : Irrep of orbital(  96) could not be determined
 Warning : Irrep of orbital(  97) could not be determined
 Warning : Irrep of orbital(  98) could not be determined
 Warning : Irrep of orbital(  99) could not be determined
 Warning : Irrep of orbital( 100) could not be determined
 Warning : Irrep of orbital( 103) could not be determined
 Warning : Irrep of orbital( 104) could not be determined
 Warning : Irrep of orbital( 105) could not be determined
 Warning : Irrep of orbital( 106) could not be determined
 Warning : Irrep of orbital( 108) could not be determined
 Warning : Irrep of orbital( 109) could not be determined
 Warning : Irrep of orbital( 112) could not be determined
 Warning : Irrep of orbital( 113) could not be determined
 Warning : Irrep of orbital( 114) could not be determined
 Warning : Irrep of orbital( 115) could not be determined
 Warning : Irrep of orbital( 117) could not be determined
 Warning : Irrep of orbital( 118) could not be determined
 Warning : Irrep of orbital( 121) could not be determined
 Warning : Irrep of orbital( 122) could not be determined
 Warning : Irrep of orbital( 123) could not be determined
 Warning : Irrep of orbital( 124) could not be determined
 Warning : Irrep of orbital( 129) could not be determined
 Warning : Irrep of orbital( 130) could not be determined
 Warning : Irrep of orbital( 131) could not be determined
 Warning : Irrep of orbital( 132) could not be determined
 Warning : Irrep of orbital( 133) could not be determined
 Warning : Irrep of orbital( 135) could not be determined
 Warning : Irrep of orbital( 136) could not be determined
 Warning : Irrep of orbital( 137) could not be determined
 Warning : Irrep of orbital( 138) could not be determined
 Warning : Irrep of orbital( 139) could not be determined
 Warning : Irrep of orbital( 141) could not be determined
 Warning : Irrep of orbital( 142) could not be determined
 Warning : Irrep of orbital( 143) could not be determined
 Warning : Irrep of orbital( 144) could not be determined
 Warning : Irrep of orbital( 145) could not be determined
 Warning : Irrep of orbital( 146) could not be determined
 Warning : Irrep of orbital( 147) could not be determined
 Warning : Irrep of orbital( 151) could not be determined
 Warning : Irrep of orbital( 152) could not be determined
 Warning : Irrep of orbital( 153) could not be determined
 Warning : Irrep of orbital( 154) could not be determined
 Warning : Irrep of orbital( 155) could not be determined
 Warning : Irrep of orbital( 156) could not be determined
 Warning : Irrep of orbital( 157) could not be determined
 Warning : Irrep of orbital( 158) could not be determined
 Warning : Irrep of orbital( 159) could not be determined
 Warning : Irrep of orbital( 161) could not be determined
 Warning : Irrep of orbital( 162) could not be determined
 Warning : Irrep of orbital( 163) could not be determined
 Warning : Irrep of orbital( 164) could not be determined
 Warning : Irrep of orbital( 166) could not be determined
 Warning : Irrep of orbital( 167) could not be determined
 Warning : Irrep of orbital( 169) could not be determined
 Warning : Irrep of orbital( 170) could not be determined
 Warning : Irrep of orbital( 171) could not be determined
 Warning : Irrep of orbital( 173) could not be determined
 Warning : Irrep of orbital( 174) could not be determined
 Warning : Irrep of orbital( 175) could not be determined
 Warning : Irrep of orbital( 176) could not be determined
 Warning : Irrep of orbital( 179) could not be determined
 Warning : Irrep of orbital( 180) could not be determined
 Warning : Irrep of orbital( 181) could not be determined
 Warning : Irrep of orbital( 182) could not be determined
 Warning : Irrep of orbital( 185) could not be determined
 Warning : Irrep of orbital( 186) could not be determined
 Warning : Irrep of orbital( 188) could not be determined
 Warning : Irrep of orbital( 189) could not be determined
 Warning : Irrep of orbital( 190) could not be determined
 Warning : Irrep of orbital( 191) could not be determined
 Warning : Irrep of orbital( 194) could not be determined
 Warning : Irrep of orbital( 195) could not be determined
 Warning : Irrep of orbital( 197) could not be determined
 Warning : Irrep of orbital( 198) could not be determined
 Warning : Irrep of orbital( 199) could not be determined
 Warning : Irrep of orbital( 200) could not be determined
 Warning : Irrep of orbital( 201) could not be determined
 Warning : Irrep of orbital( 202) could not be determined
 Warning : Irrep of orbital( 204) could not be determined
 Warning : Irrep of orbital( 205) could not be determined
 Warning : Irrep of orbital( 207) could not be determined
 Warning : Irrep of orbital( 208) could not be determined
 Warning : Irrep of orbital( 209) could not be determined
 Warning : Irrep of orbital( 212) could not be determined
 Warning : Irrep of orbital( 213) could not be determined
 Warning : Irrep of orbital( 214) could not be determined
 Warning : Irrep of orbital( 215) could not be determined
 Warning : Irrep of orbital( 217) could not be determined
 Warning : Irrep of orbital( 218) could not be determined
 Warning : Irrep of orbital( 219) could not be determined
 Warning : Irrep of orbital( 220) could not be determined
 Warning : Irrep of orbital( 222) could not be determined
 Warning : Irrep of orbital( 223) could not be determined
 Warning : Irrep of orbital( 226) could not be determined
 Warning : Irrep of orbital( 227) could not be determined
 Warning : Irrep of orbital( 230) could not be determined
 Warning : Irrep of orbital( 231) could not be determined
 Warning : Irrep of orbital( 234) could not be determined
 Warning : Irrep of orbital( 235) could not be determined
 Warning : Irrep of orbital( 236) could not be determined
 Warning : Irrep of orbital( 237) could not be determined
 Warning : Irrep of orbital( 238) could not be determined
 Warning : Irrep of orbital( 239) could not be determined
 Warning : Irrep of orbital( 242) could not be determined
 Warning : Irrep of orbital( 243) could not be determined
 Warning : Irrep of orbital( 245) could not be determined
 Warning : Irrep of orbital( 246) could not be determined
 Warning : Irrep of orbital( 247) could not be determined
 Warning : Irrep of orbital( 248) could not be determined
 Warning : Irrep of orbital( 252) could not be determined
 Warning : Irrep of orbital( 253) could not be determined
 Warning : Irrep of orbital( 254) could not be determined
 Warning : Irrep of orbital( 255) could not be determined
 Warning : Irrep of orbital( 256) could not be determined
 Warning : Irrep of orbital( 257) could not be determined
 Warning : Irrep of orbital( 258) could not be determined
 Warning : Irrep of orbital( 259) could not be determined
 Warning : Irrep of orbital( 262) could not be determined
 Warning : Irrep of orbital( 263) could not be determined
 Warning : Irrep of orbital( 264) could not be determined
 Warning : Irrep of orbital( 265) could not be determined
 Warning : Irrep of orbital( 266) could not be determined
 Warning : Irrep of orbital( 270) could not be determined
 Warning : Irrep of orbital( 271) could not be determined
 Warning : Irrep of orbital( 272) could not be determined
 Warning : Irrep of orbital( 273) could not be determined
 Warning : Irrep of orbital( 274) could not be determined
 Warning : Irrep of orbital( 276) could not be determined
 Warning : Irrep of orbital( 277) could not be determined
 Warning : Irrep of orbital( 278) could not be determined
 Warning : Irrep of orbital( 279) could not be determined
 Warning : Irrep of orbital( 280) could not be determined
 Warning : Irrep of orbital( 281) could not be determined
 Warning : Irrep of orbital( 282) could not be determined
 Warning : Irrep of orbital( 284) could not be determined
 Warning : Irrep of orbital( 285) could not be determined
 Warning : Irrep of orbital( 287) could not be determined
 Warning : Irrep of orbital( 288) could not be determined
 Warning : Irrep of orbital( 289) could not be determined
 Warning : Irrep of orbital( 290) could not be determined
 Warning : Irrep of orbital( 291) could not be determined
 Warning : Irrep of orbital( 292) could not be determined
 Warning : Irrep of orbital( 293) could not be determined
 Warning : Irrep of orbital( 295) could not be determined
 Warning : Irrep of orbital( 296) could not be determined
 Warning : Irrep of orbital( 297) could not be determined
 Warning : Irrep of orbital( 298) could not be determined
 Warning : Irrep of orbital( 299) could not be determined
 Warning : Irrep of orbital( 300) could not be determined
 Warning : Irrep of orbital( 301) could not be determined
 Warning : Irrep of orbital( 302) could not be determined
 Warning : Irrep of orbital( 304) could not be determined
 Warning : Irrep of orbital( 305) could not be determined
 Warning : Irrep of orbital( 307) could not be determined
 Warning : Irrep of orbital( 308) could not be determined
 Warning : Irrep of orbital( 309) could not be determined
 Warning : Irrep of orbital( 310) could not be determined
 Warning : Irrep of orbital( 311) could not be determined
 Warning : Irrep of orbital( 313) could not be determined
 Warning : Irrep of orbital( 316) could not be determined
 Warning : Irrep of orbital( 317) could not be determined
 Warning : Irrep of orbital( 319) could not be determined
 Warning : Irrep of orbital( 320) could not be determined
 Warning : Irrep of orbital( 321) could not be determined
 Warning : Irrep of orbital( 322) could not be determined
 Warning : Irrep of orbital( 324) could not be determined
 Warning : Irrep of orbital( 325) could not be determined
 Warning : Irrep of orbital( 328) could not be determined
 Warning : Irrep of orbital( 329) could not be determined
 Warning : Irrep of orbital( 331) could not be determined
 Warning : Irrep of orbital( 332) could not be determined
 Warning : Irrep of orbital( 334) could not be determined
 Warning : Irrep of orbital( 335) could not be determined
 Warning : Irrep of orbital( 338) could not be determined
 Warning : Irrep of orbital( 339) could not be determined
 Warning : Irrep of orbital( 340) could not be determined
 Warning : Irrep of orbital( 341) could not be determined
 Warning : Irrep of orbital( 342) could not be determined
 Warning : Irrep of orbital( 343) could not be determined
 Warning : Irrep of orbital( 344) could not be determined
 Warning : Irrep of orbital( 345) could not be determined
 Warning : Irrep of orbital( 346) could not be determined
 Warning : Irrep of orbital( 348) could not be determined
 Warning : Irrep of orbital( 349) could not be determined
 Warning : Irrep of orbital( 351) could not be determined
 Warning : Irrep of orbital( 352) could not be determined
 Warning : Irrep of orbital( 354) could not be determined
 Warning : Irrep of orbital( 355) could not be determined
 Warning : Irrep of orbital( 356) could not be determined
 Warning : Irrep of orbital( 357) could not be determined
 Warning : Irrep of orbital( 359) could not be determined
 Warning : Irrep of orbital( 360) could not be determined
 Warning : Irrep of orbital( 361) could not be determined
 Warning : Irrep of orbital( 363) could not be determined
 Warning : Irrep of orbital( 364) could not be determined
 Warning : Irrep of orbital( 365) could not be determined
 Warning : Irrep of orbital( 366) could not be determined
 Warning : Irrep of orbital( 368) could not be determined
 Warning : Irrep of orbital( 369) could not be determined
 Warning : Irrep of orbital( 371) could not be determined
 Warning : Irrep of orbital( 372) could not be determined
 Warning : Irrep of orbital( 373) could not be determined
 Warning : Irrep of orbital( 374) could not be determined
 Warning : Irrep of orbital( 375) could not be determined
 Warning : Irrep of orbital( 378) could not be determined
 Warning : Irrep of orbital( 379) could not be determined
 Warning : Irrep of orbital( 381) could not be determined
 Warning : Irrep of orbital( 382) could not be determined
 Warning : Irrep of orbital( 383) could not be determined
 Warning : Irrep of orbital( 386) could not be determined
 Warning : Irrep of orbital( 387) could not be determined
 Warning : Irrep of orbital( 388) could not be determined
 Warning : Irrep of orbital( 389) could not be determined
 Warning : Irrep of orbital( 392) could not be determined
 Warning : Irrep of orbital( 393) could not be determined
 Warning : Irrep of orbital( 394) could not be determined
 Warning : Irrep of orbital( 395) could not be determined
 Warning : Irrep of orbital( 398) could not be determined
 Warning : Irrep of orbital( 399) could not be determined
 Warning : Irrep of orbital( 400) could not be determined
 Warning : Irrep of orbital( 401) could not be determined
 Warning : Irrep of orbital( 402) could not be determined
 Warning : Irrep of orbital( 403) could not be determined
 Warning : Irrep of orbital( 404) could not be determined
 Warning : Irrep of orbital( 406) could not be determined
 Warning : Irrep of orbital( 407) could not be determined
 Warning : Irrep of orbital( 408) could not be determined
 Warning : Irrep of orbital( 409) could not be determined
 Warning : Irrep of orbital( 410) could not be determined
 Warning : Irrep of orbital( 411) could not be determined
 Warning : Irrep of orbital( 412) could not be determined
 Warning : Irrep of orbital( 413) could not be determined
 Warning : Irrep of orbital( 414) could not be determined
 Warning : Irrep of orbital( 415) could not be determined
 Warning : Irrep of orbital( 419) could not be determined
 Warning : Irrep of orbital( 420) could not be determined
 Warning : Irrep of orbital( 421) could not be determined
 Warning : Irrep of orbital( 422) could not be determined
 Warning : Irrep of orbital( 423) could not be determined
 Warning : Irrep of orbital( 425) could not be determined
 Warning : Irrep of orbital( 426) could not be determined
 Warning : Irrep of orbital( 427) could not be determined
 Warning : Irrep of orbital( 428) could not be determined
 Warning : Irrep of orbital( 429) could not be determined
 Warning : Irrep of orbital( 430) could not be determined
 Warning : Irrep of orbital( 432) could not be determined
 Warning : Irrep of orbital( 433) could not be determined
 Warning : Irrep of orbital( 435) could not be determined
 Warning : Irrep of orbital( 437) could not be determined
 Warning : Irrep of orbital( 438) could not be determined
[...]
 Warning : Irrep of orbital( 559) could not be determined
 Warning : Irrep of orbital( 560) could not be determined
 Warning : Irrep of orbital( 561) could not be determined
 Warning : Irrep of orbital( 564) could not be determined
 Warning : Irrep of orbital( 565) could not be determined
 Warning : Irrep of orbital( 566) could not be determined
 Warning : Irrep of orbital( 567) could not be determined
 Warning : Irrep of orbital( 568) could not be determined
 Warning : Irrep of orbital( 569) could not be determined
 Warning : Irrep of orbital( 570) could not be determined
 Warning : Irrep of orbital( 571) could not be determined
 Warning : Irrep of orbital( 572) could not be determined
 Warning : Irrep of orbital( 573) could not be determined
 Warning : Irrep of orbital( 574) could not be determined
 Warning : Irrep of orbital( 575) could not be determined
 Warning : Irrep of orbital( 576) could not be determined
 Warning : Irrep of orbital( 577) could not be determined
 Warning : Irrep of orbital( 578) could not be determined
 Warning : Irrep of orbital( 579) could not be determined
 Warning : Irrep of orbital( 580) could not be determined
 Warning : Irrep of orbital( 581) could not be determined
 Warning : Irrep of orbital( 582) could not be determined
 Warning : Irrep of orbital( 583) could not be determined
 Warning : Irrep of orbital( 584) could not be determined
 Warning : Irrep of orbital( 585) could not be determined
 Warning : Irrep of orbital( 586) could not be determined
 Warning : Irrep of orbital( 587) could not be determined
 Warning : Irrep of orbital( 589) could not be determined
 Warning : Irrep of orbital( 591) could not be determined
 Warning : Irrep of orbital( 592) could not be determined
 Warning : Irrep of orbital( 593) could not be determined
 Warning : Irrep of orbital( 594) could not be determined
 Warning : Irrep of orbital( 595) could not be determined
 Warning : Irrep of orbital( 596) could not be determined
 Warning : Irrep of orbital( 597) could not be determined
 Warning : Irrep of orbital( 599) could not be determined
 Warning : Irrep of orbital( 600) could not be determined
 Warning : Irrep of orbital( 601) could not be determined
 Warning : Irrep of orbital( 602) could not be determined
 Warning : Irrep of orbital( 603) could not be determined
 Warning : Irrep of orbital( 606) could not be determined
 Warning : Irrep of orbital( 607) could not be determined
 Warning : Irrep of orbital( 608) could not be determined
 Warning : Irrep of orbital( 609) could not be determined
 Warning : Irrep of orbital( 610) could not be determined
 Warning : Irrep of orbital( 612) could not be determined
 Warning : Irrep of orbital( 613) could not be determined
 Warning : Irrep of orbital( 614) could not be determined
 Warning : Irrep of orbital( 615) could not be determined
 Warning : Irrep of orbital( 616) could not be determined
 Warning : Irrep of orbital( 617) could not be determined
 Warning : Irrep of orbital( 618) could not be determined
 Warning : Irrep of orbital( 619) could not be determined
 Warning : Irrep of orbital( 620) could not be determined
 Warning : Irrep of orbital( 621) could not be determined
 Warning : Irrep of orbital( 624) could not be determined
 Warning : Irrep of orbital( 625) could not be determined
 Warning : Irrep of orbital( 626) could not be determined
 Warning : Irrep of orbital( 627) could not be determined
 Warning : Irrep of orbital( 628) could not be determined
 Warning : Irrep of orbital( 629) could not be determined
 Warning : Irrep of orbital( 630) could not be determined
 Warning : Irrep of orbital( 632) could not be determined
 Warning : Irrep of orbital( 633) could not be determined
 Warning : Irrep of orbital( 635) could not be determined
 Warning : Irrep of orbital( 636) could not be determined
 Warning : Irrep of orbital( 637) could not be determined
 Warning : Irrep of orbital( 638) could not be determined
 Warning : Irrep of orbital( 640) could not be determined
 Warning : Irrep of orbital( 641) could not be determined
 Warning : Irrep of orbital( 642) could not be determined
 Warning : Irrep of orbital( 643) could not be determined
 Warning : Irrep of orbital( 645) could not be determined
 Warning : Irrep of orbital( 646) could not be determined
 Warning : Irrep of orbital( 647) could not be determined
 
 Beta MOs, Unrestricted
 -- Occupied --                  
-255.59 -255.59  -29.98  -29.98  -25.77  -25.77  -25.76  -25.76
  1 A     2 A     3 A     4 A     0 xxx   0 xxx   0 xxx   0 xxx                
-25.761 -25.761 -19.067 -19.067 -19.063 -19.063 -19.063 -19.063
  0 xxx   0 xxx   0 xxx   0 xxx   0 xxx   0 xxx   0 xxx   0 xxx                
-19.051 -19.027 -19.027 -10.182 -10.182 -10.178 -10.178 -10.178
  0 xxx   0 xxx   0 xxx   0 xxx   0 xxx   0 xxx   0 xxx   0 xxx                
-10.178 -10.171 -10.159 -10.159  -3.448  -3.448  -2.199  -2.199
  0 xxx   0 xxx   0 xxx   1 E     1 E     5 A     0 xxx   0 xxx                
 -2.196  -2.196  -2.190  -2.188  -1.126  -1.126  -1.124  -1.124
  0 xxx   0 xxx   0 xxx   0 xxx   0 xxx   0 xxx   0 xxx   0 xxx                
 -1.123  -1.123  -1.095  -1.080  -1.080  -0.609  -0.577  -0.551
  0 xxx   0 xxx   0 xxx   0 xxx   0 xxx   6 A     7 A     0 xxx                
 -0.549  -0.549  -0.547  -0.546  -0.534  -0.528  -0.471  -0.467
  0 xxx   0 xxx   0 xxx   0 xxx   0 xxx   0 xxx   8 A     9 A                  
 -0.457  -0.457  -0.457  -0.456  -0.455  -0.455  -0.450  -0.450
  0 xxx   0 xxx   0 xxx   0 xxx   0 xxx   0 xxx   0 xxx   0 xxx                
 -0.445  -0.444  -0.440  -0.439  -0.430  -0.428  -0.423  -0.419
  0 xxx   0 xxx   0 xxx  10 A     0 xxx   0 xxx   0 xxx   0 xxx                
 -0.419  -0.419  -0.416  -0.415  -0.409  -0.409  -0.393  -0.381
  0 xxx   0 xxx   0 xxx   0 xxx   0 xxx   0 xxx   0 xxx   0 xxx                
 -0.380  -0.265  -0.264  -0.257  -0.254  -0.252  -0.242  -0.196
  0 xxx   0 xxx   0 xxx   0 xxx   0 xxx   0 xxx   0 xxx   0 xxx                
 -- Virtual --                   
 -0.190  -0.108  -0.098  -0.093  -0.074  -0.068  -0.065  -0.063
  0 xxx  11 A     0 xxx   0 xxx   0 xxx   0 xxx   0 xxx   0 xxx                
 -0.062  -0.061  -0.059  -0.056  -0.051  -0.050  -0.045  -0.044
  0 xxx   0 xxx   0 xxx   0 xxx   0 xxx   0 xxx  12 A    13 A                  
 -0.041  -0.040  -0.013   0.008   0.009   0.025   0.047   0.105
  0 xxx   0 xxx  14 A     0 xxx   0 xxx  15 A    16 A     0 xxx                
  0.107   0.144   0.144   0.145   0.166   0.168   0.215   0.216
  0 xxx   0 xxx   0 xxx  17 A     0 xxx   0 xxx   0 xxx   0 xxx                
  0.217   0.221   0.231   0.232   0.241   0.249   0.278   0.284
  0 xxx  18 A     0 xxx   0 xxx  19 A    20 A    21 A     0 xxx                
  0.289   0.291   0.291   0.292   0.294   0.312   0.322   0.323
  0 xxx   0 xxx   0 xxx   0 xxx   0 xxx   0 xxx   0 xxx   0 xxx                
  0.324   0.325   0.328   0.329   0.353   0.358   0.360   0.360
  0 xxx   0 xxx   0 xxx  22 A     0 xxx   0 xxx   0 xxx   0 xxx                
  0.361   0.393   0.395   0.416   0.417   0.434   0.434   0.435
  0 xxx   0 xxx   0 xxx  23 A    24 A     0 xxx   0 xxx   0 xxx                
  0.435   0.437   0.437   0.452   0.454   0.458   0.460   0.473
 25 A     0 xxx   0 xxx   0 xxx   0 xxx   0 xxx   0 xxx  26 A                  
  0.480   0.480   0.486   0.487   0.498   0.498   0.509   0.511
  0 xxx   0 xxx   0 xxx   0 xxx  27 A    28 A     0 xxx   0 xxx                
  0.523   0.530   0.533   0.533   0.536   0.538   0.558   0.567
 29 A     0 xxx   0 xxx   0 xxx   0 xxx   0 xxx  30 A     0 xxx                
  0.569   0.582   0.601   0.601   0.613   0.614   0.630   0.635
  0 xxx  31 A     0 xxx   0 xxx   0 xxx   0 xxx  32 A    33 A                  
  0.651   0.652   0.657   0.665   0.665   0.689   0.692   0.704
  0 xxx   0 xxx  34 A     0 xxx   0 xxx  35 A    36 A    37 A                  
  0.712   0.712   0.713   0.714   0.739   0.742   0.746   0.748
  0 xxx   0 xxx   0 xxx   0 xxx   0 xxx   0 xxx   0 xxx   0 xxx                
  0.772   0.772   0.784   0.786   0.786   0.789   0.795   0.799
  0 xxx   0 xxx   0 xxx   0 xxx   0 xxx  38 A     0 xxx   0 xxx                
  0.800   0.832   0.843   0.845   0.846   0.847   0.850   0.861
  0 xxx  39 A     0 xxx   0 xxx   0 xxx   0 xxx   0 xxx  40 A                  
  0.866   0.867   0.891   0.893   0.894   0.920   0.921   0.925
  0 xxx   0 xxx  41 A     0 xxx   0 xxx  42 A     0 xxx   0 xxx                
  0.932   0.978   0.979   1.012   1.027   1.030   1.040   1.056
 43 A     0 xxx   0 xxx  44 A     0 xxx   0 xxx  45 A    46 A                  
  1.060   1.065   1.067   1.077   1.078   1.108   1.109   1.135
 47 A     0 xxx   0 xxx   0 xxx   0 xxx   0 xxx   0 xxx  48 A                  
  1.147   1.168   1.169   1.198   1.199   1.234   1.236   1.245
 49 A     0 xxx   0 xxx   0 xxx   0 xxx  50 A    51 A     0 xxx                
  1.247   1.248   1.284   1.285   1.315   1.318   1.323   1.330
  0 xxx   0 xxx   0 xxx   0 xxx   0 xxx   0 xxx  52 A     0 xxx                
  1.332   1.356   1.358   1.368   1.383   1.384   1.394   1.398
  0 xxx   0 xxx   0 xxx  53 A     0 xxx   0 xxx  54 A    55 A                  
  1.402   1.402   1.404   1.415   1.428   1.454   1.479   1.481
  0 xxx  56 A     0 xxx  57 A    58 A    59 A     0 xxx   0 xxx                
  1.486   1.496   1.497   1.502   1.505   1.520   1.526   1.527
 60 A     0 xxx   0 xxx   0 xxx   0 xxx  61 A     0 xxx   0 xxx                
  1.532   1.537   1.539   1.564   1.566   1.573   1.591   1.595
  0 xxx   0 xxx   0 xxx   0 xxx   0 xxx  62 A     0 xxx   0 xxx                
  1.608   1.609   1.610   1.618   1.618   1.658   1.666   1.667
  0 xxx   0 xxx  63 A     0 xxx   0 xxx  64 A     0 xxx   0 xxx                
  1.667   1.672   1.672   1.686   1.749   1.754   1.754   1.759
  0 xxx   0 xxx   0 xxx  65 A     0 xxx   0 xxx   0 xxx   0 xxx                
  1.773   1.873   1.918   1.918   1.953   1.958   1.987   1.990
  0 xxx  66 A     0 xxx   0 xxx   0 xxx   0 xxx   0 xxx   0 xxx                
  2.011   2.015   2.017   2.017   2.018   2.030   2.043   2.044
  0 xxx  67 A     0 xxx   0 xxx   0 xxx  68 A     0 xxx   0 xxx                
  2.045   2.045   2.111   2.121   2.123   2.134   2.169   2.226
  0 xxx   0 xxx   0 xxx   0 xxx   0 xxx  69 A    70 A     0 xxx                
  2.233   2.234   2.251   2.253   2.253   2.262   2.283   2.286
  0 xxx   0 xxx   0 xxx   0 xxx   0 xxx  71 A     0 xxx   0 xxx                
  2.337   2.345   2.347   2.382   2.390   2.411   2.411   2.415
  0 xxx   0 xxx   0 xxx   0 xxx   0 xxx  72 A     0 xxx   0 xxx                
  2.422   2.422   2.625   2.684   2.694   2.694   2.703   2.704
  0 xxx   0 xxx  73 A    74 A     0 xxx   0 xxx   0 xxx   0 xxx                
  2.727   2.728   2.733   2.741   2.742   2.750   2.767   2.768
  0 xxx   0 xxx  75 A     0 xxx   0 xxx  76 A     0 xxx   0 xxx                
  2.770   2.772   2.773   2.777   2.778   2.780   2.781   2.782
  0 xxx   0 xxx   0 xxx   0 xxx   0 xxx   0 xxx   0 xxx   0 xxx                
  2.800   2.824   2.833   2.849   2.849   2.850   2.851   2.855
 77 A    78 A    79 A     0 xxx   0 xxx   0 xxx   0 xxx   0 xxx                
  2.855   2.855   2.857   2.857   2.859   2.871   2.877   2.878
  0 xxx   0 xxx   0 xxx   0 xxx   0 xxx  80 A    81 A    82 A                  
  2.915   2.924   2.925   2.950   2.952   2.957   2.971   2.972
  0 xxx   0 xxx   0 xxx   0 xxx   0 xxx  83 A     0 xxx   0 xxx                
  2.983   2.985   2.990   2.991   3.004   3.023   3.026   3.027
  0 xxx   0 xxx  84 A    85 A     0 xxx   0 xxx   0 xxx   0 xxx                
  3.040   3.041   3.056   3.057   3.069   3.070   3.074   3.079
  0 xxx   0 xxx   0 xxx   0 xxx   0 xxx   0 xxx  86 A     0 xxx                
  3.080   3.081   3.082   3.084   3.085   3.090   3.110   3.119
  0 xxx  87 A     0 xxx   0 xxx   0 xxx   0 xxx  88 A     0 xxx                
  3.120   3.121   3.134   3.146   3.147   3.169   3.170   3.187
  0 xxx   0 xxx  89 A     0 xxx   0 xxx   0 xxx   0 xxx  90 A                  
  3.194   3.196   3.205   3.211   3.235   3.237   3.252   3.253
  0 xxx   0 xxx   0 xxx   0 xxx   0 xxx   0 xxx   0 xxx   0 xxx                
  3.264   3.268   3.271   3.273   3.298   3.302   3.305   3.307
  0 xxx   0 xxx   0 xxx  91 A    92 A    93 A     0 xxx   0 xxx                
  3.319   3.319   3.345   3.348   3.372   3.374   3.376   3.376
 94 A    95 A     0 xxx   0 xxx   0 xxx   0 xxx   0 xxx   0 xxx                
  3.401   3.422   3.459   3.461   3.482   3.501   3.502   3.532
 96 A    97 A     0 xxx   0 xxx  98 A     0 xxx   0 xxx   0 xxx                
  3.534   3.538   3.539   3.540   3.553   3.578   3.655   3.656
  0 xxx   0 xxx   0 xxx   0 xxx  99 A   100 A     0 xxx   0 xxx                
  3.675   3.695   3.699   3.702   3.729   3.730   3.737   3.737
101 A     0 xxx   0 xxx   0 xxx   0 xxx   0 xxx   0 xxx   0 xxx                
  3.742   3.821   3.823   3.824   3.825   3.846   3.849   3.928
102 A     0 xxx   0 xxx   0 xxx   0 xxx 103 A   104 A     0 xxx                
  3.935   3.982   3.983   3.984   3.994   3.999   4.001   4.015
  0 xxx   0 xxx   0 xxx   0 xxx 105 A     0 xxx   0 xxx 106 A                  
  4.023   4.097   4.101   4.106   4.127   4.153   4.156   4.289
107 A     0 xxx   0 xxx   0 xxx 108 A     0 xxx   0 xxx   0 xxx                
  4.291   4.306   4.322   4.326   4.333   4.347   4.393   4.396
  0 xxx   0 xxx   0 xxx   0 xxx 109 A   110 A     0 xxx   0 xxx                
  4.432   4.434   4.439   4.473   4.480   4.486   4.526   4.579
  0 xxx   0 xxx 111 A     0 xxx   0 xxx   0 xxx 112 A     0 xxx                
  4.580   4.604   4.655   4.656   5.033   5.037   5.130   5.130
  0 xxx 113 A     0 xxx   0 xxx 114 A   115 A     0 xxx   0 xxx                
  5.133   5.133   5.214   5.214   5.214   5.215   5.216   5.216
  0 xxx   0 xxx   0 xxx   0 xxx   0 xxx   0 xxx   0 xxx   0 xxx                
  5.217   5.217   5.217   5.217   5.217   5.218   5.241   5.241
  0 xxx   0 xxx   0 xxx   0 xxx   0 xxx   0 xxx   0 xxx   2 E                  
  5.256   5.257   5.258   5.263   5.587   5.594   5.595   5.602
  2 E     0 xxx   0 xxx   0 xxx   0 xxx   0 xxx   0 xxx 116 A                  
  5.603   5.608   5.610   5.614   5.622   5.625   5.629   5.630
117 A     0 xxx   0 xxx   0 xxx   0 xxx 118 A     0 xxx   0 xxx                
  5.665   5.672   5.692   5.694   5.708   5.710   6.271   6.282
  0 xxx   0 xxx   0 xxx   0 xxx   0 xxx   0 xxx   0 xxx   0 xxx                
  6.307   6.312   6.335   6.349   6.351   6.352   6.353   6.353
  0 xxx 119 A   120 A     0 xxx   0 xxx   0 xxx   0 xxx   0 xxx                
  6.354   6.355   6.355   6.356   6.357   6.357   6.358   6.359
  0 xxx   0 xxx   0 xxx   0 xxx   0 xxx   0 xxx   0 xxx   0 xxx                
  6.361   6.389   6.391   6.397   6.399   6.417   6.419   6.430
  0 xxx   0 xxx   0 xxx   0 xxx   0 xxx   0 xxx   0 xxx   0 xxx                
  6.431   6.460   6.461   6.466   6.487   6.492   6.494   6.496
  0 xxx   0 xxx   0 xxx 121 A     0 xxx 122 A     0 xxx   0 xxx                
  6.499   6.511   6.574   6.589   6.637   6.719   6.728   6.736
  0 xxx   0 xxx   0 xxx   0 xxx   0 xxx 123 A     0 xxx   0 xxx                
  6.738   6.741   6.743   6.854   6.856   6.872   6.873   6.879
  0 xxx   0 xxx   0 xxx 124 A   125 A     0 xxx   0 xxx   0 xxx                
  6.880   6.901   6.905   6.913   6.916   6.921   6.934   6.935
  0 xxx   0 xxx 126 A     0 xxx   0 xxx   0 xxx   0 xxx   0 xxx                
  6.966   6.985   6.992   7.014   7.026   7.157   7.181   7.202
  0 xxx   0 xxx   0 xxx   0 xxx   0 xxx 127 A   128 A     0 xxx                
  7.213   7.215   7.221   7.223   7.228   7.238  23.005  23.080
  0 xxx   0 xxx   0 xxx   0 xxx   0 xxx   0 xxx 129 A     0 xxx                
 23.087  23.194  23.240  23.243  23.319  23.323  23.599  43.960
  0 xxx 130 A     0 xxx   0 xxx   0 xxx   0 xxx 131 A     0 xxx                
 43.963  43.966  43.968  44.032  44.037  44.042  44.058  44.154
  0 xxx   0 xxx   0 xxx 132 A     0 xxx   0 xxx   0 xxx 133 A                  
 --------------------------------------------------------------
 
          Ground-State Mulliken Net Atomic Charges

     Atom                 Charge (a.u.)    Spin (a.u.)
  --------------------------------------------------------
      1 Fe                    0.198460       0.560871
      2 Fe                    0.198455       0.560871
      3 C                     0.368065       0.117072
      4 O                    -0.327886       0.099662
      5 C                     0.367107       0.226706
      6 O                    -0.288803       0.232043
      7 C                     0.368817       0.115265
      8 O                    -0.328237       0.097788
      9 C                     0.111865      -0.012232
     10 O                    -0.209026      -0.003533
     11 C                     0.111370      -0.011456
     12 O                    -0.208903      -0.003458
     13 C                     0.121720       0.023431
     14 O                    -0.205015       0.002110
     15 C                     0.121719       0.023431
     16 O                    -0.205015       0.002110
     17 C                     0.111371      -0.011456
     18 O                    -0.208903      -0.003458
     19 C                     0.111865      -0.012232
     20 O                    -0.209026      -0.003533
  --------------------------------------------------------
  Sum of atomic charges =     0.000000
  Sum of spin   charges =     2.000000

 -----------------------------------------------------------------
                    Cartesian Multipole Moments
 -----------------------------------------------------------------
    Charge (ESU x 10^10)
                 0.0000
    Dipole Moment (Debye)
         X      -0.1670      Y       0.2969      Z      -0.0000
       Tot       0.3406
    Quadrupole Moments (Debye-Ang)
        XX    -132.8070     XY      -1.1623     YY    -131.4972
        XZ      -0.0000     YZ       0.0000     ZZ    -123.0701
    Octapole Moments (Debye-Ang^2)
       XXX      -2.8859    XXY       0.7472    XYY       1.2027
       YYY       2.2525    XXZ      -0.0118    XYZ      -0.0001
       YYZ      -0.0117    XZZ       1.0835    YZZ      -1.9292
       ZZZ      -0.0328
    Hexadecapole Moments (Debye-Ang^3)
      XXXX   -1496.5220   XXXY      -2.4712   XXYY    -495.6524
      XYYY      -6.4949   YYYY   -1486.4183   XXXZ      -0.0002
      XXYZ       0.0001   XYYZ       0.0001   YYYZ       0.0002
      XXZZ    -782.2436   XYZZ      -2.0241   YYZZ    -779.9537
      XZZZ       0.0003   YZZZ      -0.0005   ZZZZ   -2953.9748
 -----------------------------------------------------------------
Archival summary:
1\1\v43\OPT\ProcedureUnspecified\BasisUnspecified\e299(3)\jvandeza\WedJan800:50:332014WedJan800:50:332014\0\\#,OPT,ProcedureUnspecified,BasisUnspecified,\\0,3\Fe\C,1,1.82806\O,2,1.14114,1,178.393\C,1,1.82806,2,96.2808,3,-131.737,0\O,4,1.14114,1,178.393,2,131.207,0\C,1,1.82806,2,96.2808,3,131.207,0\O,6,1.14114,1,178.393,2,-131.737,0\C,1,2.06186,2,91.0552,3,-40.5548,0\O,8,1.16595,1,138.296,2,-48.1277,0\Fe,8,2.06186,1,83.4078,2,131.851,0\C,10,1.82806,8,168.98,1,-0.0178201,0\O,11,1.14114,10,178.393,8,0.280868,0\C,10,1.82806,8,91.0596,1,131.846,0\O,13,1.14114,10,178.393,8,-40.0282,0\C,10,1.82806,8,91.0552,1,-131.851,0\O,15,1.14114,10,178.393,8,40.5551,0\C,10,2.06186,8,80.5668,1,40.9524,0\O,17,1.16595,10,138.296,8,139.027,0\C,10,2.06186,8,80.5668,1,-40.9524,0\O,19,1.16595,10,138.296,8,-139.069,0\\\@

 Total job time:  133327.07s(wall), 133143.61s(cpu) 
 Wed Jan  8 00:50:33 2014

        *************************************************************
        *                                                           *
        *  Thank you very much for using Q-Chem.  Have a nice day.  *
        *                                                           *
        *************************************************************


