
                                 *****************
                                 * O   R   C   A *
                                 *****************

           --- An Ab Initio, DFT and Semiempirical electronic structure package ---

                  #######################################################
                  #                        -***-                        #
                  #  Department of molecular theory and spectroscopy    #
                  #              Directorship: Frank Neese              #
                  # Max Planck Institute for Chemical Energy Conversion #
                  #                  D-45470 Muelheim/Ruhr              #
                  #                       Germany                       #
                  #                                                     #
                  #                  All rights reserved                #
                  #                        -***-                        #
                  #######################################################


                         Program Version 4.0.0.2 - RELEASE -


 With contributions from (in alphabetic order):
   Daniel Aravena         : Magnetic Properties
   Michael Atanasov       : Ab Initio Ligand Field Theory
   Ute Becker             : Parallelization
   Martin Brehm           : Molecular dynamics
   Dmytro Bykov           : SCF Hessian
   Vijay G. Chilkuri      : MRCI spin determinant printing
   Dipayan Datta          : RHF DLPNO-CCSD density
   Achintya Kumar Dutta   : EOM-CC, STEOM-CC
   Dmitry Ganyushin       : Spin-Orbit,Spin-Spin,Magnetic field MRCI
   Yang Guo               : DLPNO-NEVPT2, CIM, IAO-localization
   Andreas Hansen         : Spin unrestricted coupled pair/coupled cluster methods
   Lee Huntington         : MR-EOM, pCC
   Robert Izsak           : Overlap fitted RIJCOSX, COSX-SCS-MP3, EOM
   Christian Kollmar      : KDIIS, OOCD, Brueckner-CCSD(T), CCSD density
   Simone Kossmann        : Meta GGA functionals, TD-DFT gradient, OOMP2, MP2 Hessian
   Martin Krupicka        : AUTO-CI
   Dagmar Lenk            : GEPOL surface
   Dimitrios Liakos       : Extrapolation schemes; parallel MDCI
   Dimitrios Manganas     : ROCIS; embedding schemes
   Dimitrios Pantazis     : SARC Basis sets
   Taras Petrenko         : DFT Hessian,TD-DFT gradient, ASA, ECA, R-Raman, ABS, FL, XAS/XES, NRVS
   Peter Pinski           : DLPNO-MP2
   Christoph Reimann      : Effective Core Potentials
   Marius Retegan         : Local ZFS, SOC
   Christoph Riplinger    : Optimizer, TS searches, QM/MM, DLPNO-CCSD(T), (RO)-DLPNO pert. Triples
   Tobias Risthaus        : Range-separated hybrids, TD-DFT gradient, RPA, STAB
   Michael Roemelt        : Restricted open shell CIS
   Masaaki Saitow         : Open-shell DLPNO
   Barbara Sandhoefer     : DKH picture change effects
   Kantharuban Sivalingam : CASSCF convergence, NEVPT2, FIC-MRCI
   Georgi Stoychev        : AutoAux
   Boris Wezisla          : Elementary symmetry handling
   Frank Wennmohs         : Technical directorship


 We gratefully acknowledge several colleagues who have allowed us to
 interface, adapt or use parts of their codes:
   Stefan Grimme, W. Hujo, H. Kruse,             : VdW corrections, initial TS optimization,
                  C. Bannwarth                     DFT functionals, gCP, sTDA/sTD-DF
   Ed Valeev                                     : LibInt (2-el integral package), F12 methods
   Garnet Chan, S. Sharma, J. Yang, R. Olivares  : DMRG
   Ulf Ekstrom                                   : XCFun DFT Library
   Mihaly Kallay                                 : mrcc  (arbitrary order and MRCC methods)
   Jiri Pittner, Ondrej Demel                    : Mk-CCSD
   Frank Weinhold                                : gennbo (NPA and NBO analysis)
   Christopher J. Cramer and Donald G. Truhlar   : smd solvation model


 Your calculation uses the libint2 library for the computation of 2-el integrals
 For citations please refer to: http://libint.valeyev.net

 This ORCA versions uses:
   CBLAS   interface :  Fast vector & matrix operations
   LAPACKE interface :  Fast linear algebra routines
   SCALAPACK package :  Parallel linear algebra routines


Your calculation utilizes the basis: 3-21G
   H-Ne       : J. S. Binkley, J. A. Pople and W. J. Hehre, J. Am. Chem. Soc. 102 939 (1980).
   Na-Ar      : M. S. Gordon, J. S. Binkley, J. A. Pople, W. J. Pietro and W.J. Hehre, J. Am. Chem. Soc. 104, 2797 (1983).
   K-Ca, Ga-Kr: K. D. Dobbs and W. J. Hehre, J. Comput. Chem. 7, 359 (1986).
   Sc-Zn      : K. D. Dobbs and W. J. Hehre, J. Comput. Chem. 8, 861 (1987).
   Y-Cd       : K. D. Dobbs and W. J. Hehre, J. Comput. Chem. 8, 880 (1987).

Your calculation utilizes the new AutoAux generation procedure.
================================================================================
                                        WARNINGS
                       Please study these warnings very carefully!
================================================================================

Warning: TCutStore was < 0. Adjusted to Thresh (uncritical)

WARNING: your system is open-shell and RHF/RKS was chosen
  ===> : WILL SWITCH to UHF/UKS


INFO   : the flag for use of LIBINT has been found!

================================================================================
                                       INPUT FILE
================================================================================
NAME = input.dat
|  1> % pal nprocs 8 end
|  2> 
|  3> ! TightSCF B3LYP 3-21G RIJCOSX AutoAux
|  4> 
|  5> % output
|  6>     Print [P_OrbPopMO_M] 1
|  7>     Print [P_ReducedOrbPopMO_M] 1
|  8>     Print [P_OrbPopMO_L] 1
|  9>     Print [P_ReducedOrbPopMO_L] 1
| 10> end
| 11> 
| 12> % SCF maxiter 300 end
| 13> 
| 14> * xyz 1 2
| 15>     H    0.000000  -0.062001  -0.010865
| 16>     O    0.000000   0.051136   0.948864
| 17>     H    0.000000   1.010865   1.062001
| 18> *
| 19> 
| 20>                          ****END OF INPUT****
================================================================================

                       ****************************
                       * Single Point Calculation *
                       ****************************

---------------------------------
CARTESIAN COORDINATES (ANGSTROEM)
---------------------------------
  H      0.000000   -0.062001   -0.010865
  O      0.000000    0.051136    0.948864
  H      0.000000    1.010865    1.062001

----------------------------
CARTESIAN COORDINATES (A.U.)
----------------------------
  NO LB      ZA    FRAG     MASS         X           Y           Z
   0 H     1.0000    0     1.008    0.000000   -0.117165   -0.020532
   1 O     8.0000    0    15.999    0.000000    0.096633    1.793093
   2 H     1.0000    0     1.008    0.000000    1.910258    2.006891

--------------------------------
INTERNAL COORDINATES (ANGSTROEM)
--------------------------------
 H      0   0   0     0.000000000000     0.00000000     0.00000000
 O      1   0   0     0.966374531023     0.00000000     0.00000000
 H      2   1   0     0.966374531023   103.44648977     0.00000000

---------------------------
INTERNAL COORDINATES (A.U.)
---------------------------
 H      0   0   0     0.000000000000     0.00000000     0.00000000
 O      1   0   0     1.826183206430     0.00000000     0.00000000
 H      2   1   0     1.826183206430   103.44648977     0.00000000

---------------------
BASIS SET INFORMATION
---------------------
There are 2 groups of distinct atoms

 Group   1 Type H   : 3s contracted to 2s pattern {21}
 Group   2 Type O   : 6s3p contracted to 3s2p pattern {321/21}

Atom   0H    basis set group =>   1
Atom   1O    basis set group =>   2
Atom   2H    basis set group =>   1
-------------------------------
AUXILIARY BASIS SET INFORMATION
-------------------------------
There are 2 groups of distinct atoms

 Group   1 Type H   : 7s2p contracted to 7s2p pattern {1111111/11}
 Group   2 Type O   : 13s10p7d contracted to 13s10p7d pattern {1111111111111/1111111111/1111111}

Atom   0H    basis set group =>   1
Atom   1O    basis set group =>   2
Atom   2H    basis set group =>   1

Checking for AutoStart:
The File: input.gbw exists
Trying to determine its content:
     ... Fine, the file contains calculation information
     ... Fine, the calculation information was read
     ... Fine, the file contains a basis set
     ... Fine, the basis set was read
     ... Fine, the file contains a geometry
     ... Fine, the geometry was read
     ... Fine, the file contains a set of orbitals
     ... Fine, the orbitals can be read
     => possible old guess file was deleted
     => GBW file was renamed to GES file
     => GES file is set as startup file
     => Guess is set to MORead
     ... now leaving AutoStart



           ************************************************************
           *        Program running with 8 parallel MPI-processes     *
           *              working on a common directory               *
           ************************************************************
------------------------------------------------------------------------------
                           ORCA GTO INTEGRAL CALCULATION
                           -- RI-GTO INTEGRALS CHOSEN --
------------------------------------------------------------------------------

                         BASIS SET STATISTICS AND STARTUP INFO

Gaussian basis set:
 # of primitive gaussian shells          ...   15
 # of primitive gaussian functions       ...   21
 # of contracted shells                  ...    9
 # of contracted basis functions         ...   13
 Highest angular momentum                ...    1
 Maximum contraction depth               ...    3
Auxiliary gaussian basis set:
 # of primitive gaussian shells          ...   48
 # of primitive gaussian functions       ...  104
 # of contracted shells                  ...   48
 # of contracted aux-basis functions     ...  104
 Highest angular momentum                ...    2
 Maximum contraction depth               ...    1
Ratio of auxiliary to basis functions    ...  8.00
Integral package used                  ... LIBINT
 One Electron integrals                  ... done
 Ordering auxiliary basis shells         ... done
 Integral threshhold             Thresh  ...  2.500e-11
 Primitive cut-off               TCut    ...  2.500e-12
 Pre-screening matrix                    ... done
 Shell pair data                         ... 
 Ordering of the shell pairs             ... done (   0.000 sec) 45 of 45 pairs
 Determination of significant pairs      ... done (   0.000 sec)
 Creation of shell pair data             ... done (   0.000 sec)
 Storage of shell pair data              ... done (   0.000 sec)
 Shell pair data done in (   0.000 sec)
 Computing two index integrals           ... done
 Cholesky decomposition of the V-matrix  ... done


Timings:
 Total evaluation time                   ...   0.422 sec (  0.007 min)
 One electron matrix time                ...   0.014 sec (  0.000 min) =  3.3%
 Schwartz matrix evaluation time         ...   0.242 sec (  0.004 min) = 57.3%
 Two index repulsion integral time       ...   0.147 sec (  0.002 min) = 34.9%
 Cholesky decomposition of V             ...   0.001 sec (  0.000 min) =  0.2%
 Three index repulsion integral time     ...   0.000 sec (  0.000 min) =  0.0%



           ************************************************************
           *        Program running with 8 parallel MPI-processes     *
           *              working on a common directory               *
           ************************************************************
-------------------------------------------------------------------------------
                                 ORCA SCF
-------------------------------------------------------------------------------

------------
SCF SETTINGS
------------
Hamiltonian:
 Density Functional     Method          .... DFT(GTOs)
 Exchange Functional    Exchange        .... B88
   X-Alpha parameter    XAlpha          ....  0.666667
   Becke's b parameter  XBeta           ....  0.004200
 Correlation Functional Correlation     .... LYP
 LDA part of GGA corr.  LDAOpt          .... VWN-5
 Gradients option       PostSCFGGA      .... off
 Hybrid DFT is turned on
   Fraction HF Exchange ScalHFX         ....  0.200000
   Scaling of DF-GGA-X  ScalDFX         ....  0.720000
   Scaling of DF-GGA-C  ScalDFC         ....  0.810000
   Scaling of DF-LDA-C  ScalLDAC        ....  1.000000
   Perturbative correction              ....  0.000000
   NL short-range parameter             ....  4.800000
 RI-approximation to the Coulomb term is turned on
   Number of auxiliary basis functions  .... 104
   RIJ-COSX (HFX calculated with COS-X)).... on


General Settings:
 Integral files         IntName         .... input
 Hartree-Fock type      HFTyp           .... UHF
 Total Charge           Charge          ....    1
 Multiplicity           Mult            ....    2
 Number of Electrons    NEL             ....    9
 Basis Dimension        Dim             ....   13
 Nuclear Repulsion      ENuc            ....      9.1102141894 Eh

Convergence Acceleration:
 DIIS                   CNVDIIS         .... on
   Start iteration      DIISMaxIt       ....    12
   Startup error        DIISStart       ....  0.200000
   # of expansion vecs  DIISMaxEq       ....     5
   Bias factor          DIISBfac        ....   1.050
   Max. coefficient     DIISMaxC        ....  10.000
 Newton-Raphson         CNVNR           .... off
 SOSCF                  CNVSOSCF        .... off
 Level Shifting         CNVShift        .... on
   Level shift para.    LevelShift      ....    0.2500
   Turn off err/grad.   ShiftErr        ....    0.0010
 Zerner damping         CNVZerner       .... off
 Static damping         CNVDamp         .... on
   Fraction old density DampFac         ....    0.7000
   Max. Damping (<1)    DampMax         ....    0.9800
   Min. Damping (>=0)   DampMin         ....    0.0000
   Turn off err/grad.   DampErr         ....    0.1000
 Fernandez-Rico         CNVRico         .... off

SCF Procedure:
 Maximum # iterations   MaxIter         ....   300
 SCF integral mode      SCFMode         .... Direct
   Integral package                     .... LIBINT
 Reset frequeny         DirectResetFreq ....    20
 Integral Threshold     Thresh          ....  2.500e-11 Eh
 Primitive CutOff       TCut            ....  2.500e-12 Eh

Convergence Tolerance:
 Convergence Check Mode ConvCheckMode   .... Total+1el-Energy
 Convergence forced     ConvForced      .... 0
 Energy Change          TolE            ....  1.000e-08 Eh
 1-El. energy change                    ....  1.000e-05 Eh
 DIIS Error             TolErr          ....  5.000e-07


Diagonalization of the overlap matrix:
Smallest eigenvalue                        ... 1.094e-01
Time for diagonalization                   ...    0.000 sec
Threshold for overlap eigenvalues          ... 1.000e-08
Number of eigenvalues below threshold      ... 0
Time for construction of square roots      ...    0.000 sec
Total time needed                          ...    0.001 sec

---------------------
INITIAL GUESS: MOREAD
---------------------
Guess MOs are being read from file: input.ges
Input Geometry matches current geometry (good)
Input basis set matches current basis set (good)
MOs were renormalized
MOs were reorthogonalized (Cholesky)
                      ------------------
                      INITIAL GUESS DONE (   0.0 sec)
                      ------------------
-------------------
DFT GRID GENERATION
-------------------

General Integration Accuracy     IntAcc      ...  4.340
Radial Grid Type                 RadialGrid  ... Gauss-Chebyshev
Angular Grid (max. acc.)         AngularGrid ... Lebedev-110
Angular grid pruning method      GridPruning ... 3 (G Style)
Weight generation scheme         WeightScheme... Becke
Basis function cutoff            BFCut       ...    1.0000e-11
Integration weight cutoff        WCut        ...    1.0000e-14
Grids for H and He will be reduced by one unit

# of grid points (after initial pruning)     ...   3304 (   0.0 sec)
# of grid points (after weights+screening)   ...   3254 (   0.0 sec)
nearest neighbour list constructed           ...    0.0 sec
Grid point re-assignment to atoms done       ...    0.0 sec
Grid point division into batches done        ...    0.0 sec
Reduced shell lists constructed in    0.0 sec

Total number of grid points                  ...     3254
Total number of batches                      ...       52
Average number of points per batch           ...       62
Average number of grid points per atom       ...     1085
Average number of shells per batch           ...     6.75 (75.00%)
Average number of basis functions per batch  ...    10.00 (76.92%)
Average number of large shells per batch     ...     5.62 (83.33%)
Average number of large basis fcns per batch ...     8.38 (83.75%)
Maximum spatial batch extension              ...  13.46, 16.05, 12.83 au
Average spatial batch extension              ...   1.64,  1.81,  1.55 au

Time for grid setup =    0.026 sec

--------------------
COSX GRID GENERATION
--------------------

General Integration Accuracy     IntAcc      ...  3.340
Radial Grid Type                 RadialGrid  ... Gauss-Chebyshev
Angular Grid (max. acc.)         AngularGrid ... Lebedev-50
Angular grid pruning method      GridPruning ... 3 (G Style)
Weight generation scheme         WeightScheme... Becke
Basis function cutoff            BFCut       ...    1.0000e-11
Integration weight cutoff        WCut        ...    1.0000e-14
Grids for H and He will be reduced by one unit

# of grid points (after initial pruning)     ...   1220 (   0.0 sec)
# of grid points (after weights+screening)   ...   1194 (   0.0 sec)
nearest neighbour list constructed           ...    0.0 sec
Grid point re-assignment to atoms done       ...    0.0 sec
Grid point division into batches done        ...    0.0 sec
Reduced shell lists constructed in    0.0 sec

Total number of grid points                  ...     1194
Total number of batches                      ...       20
Average number of points per batch           ...       59
Average number of grid points per atom       ...      398
Average number of shells per batch           ...     6.75 (75.00%)
Average number of basis functions per batch  ...     9.75 (75.00%)
Average number of large shells per batch     ...     6.00 (88.89%)
Average number of large basis fcns per batch ...     9.00 (92.31%)
Maximum spatial batch extension              ...  10.40, 14.49, 10.36 au
Average spatial batch extension              ...   1.42,  2.16,  1.55 au

Overlap Fitting                  UseSFitting ... on
Constructing numerical overlap ... done (      0.0 sec)
Inverting numerical overlap    ... done (      0.0 sec)
Obtaining analytic overlap     ... done (      0.0 sec)
Final contraction and storage  ... done (      0.0 sec)


General Integration Accuracy     IntAcc      ...  3.670
Radial Grid Type                 RadialGrid  ... Gauss-Chebyshev
Angular Grid (max. acc.)         AngularGrid ... Lebedev-50
Angular grid pruning method      GridPruning ... 3 (G Style)
Weight generation scheme         WeightScheme... Becke
Basis function cutoff            BFCut       ...    1.0000e-11
Integration weight cutoff        WCut        ...    1.0000e-14
Grids for H and He will be reduced by one unit

# of grid points (after initial pruning)     ...   1602 (   0.0 sec)
# of grid points (after weights+screening)   ...   1568 (   0.0 sec)
nearest neighbour list constructed           ...    0.0 sec
Grid point re-assignment to atoms done       ...    0.0 sec
Grid point division into batches done        ...    0.0 sec
Reduced shell lists constructed in    0.0 sec

Total number of grid points                  ...     1568
Total number of batches                      ...       26
Average number of points per batch           ...       60
Average number of grid points per atom       ...      523
Average number of shells per batch           ...     6.60 (73.33%)
Average number of basis functions per batch  ...     9.80 (75.38%)
Average number of large shells per batch     ...     6.40 (96.97%)
Average number of large basis fcns per batch ...     9.60 (97.96%)
Maximum spatial batch extension              ...  15.04, 16.35, 12.47 au
Average spatial batch extension              ...   2.02,  2.22,  1.79 au

Overlap Fitting                  UseSFitting ... on
Constructing numerical overlap ... done (      0.0 sec)
Inverting numerical overlap    ... done (      0.0 sec)
Obtaining analytic overlap     ... done (      0.0 sec)
Final contraction and storage  ... done (      0.0 sec)


General Integration Accuracy     IntAcc      ...  4.010
Radial Grid Type                 RadialGrid  ... Gauss-Chebyshev
Angular Grid (max. acc.)         AngularGrid ... Lebedev-110
Angular grid pruning method      GridPruning ... 3 (G Style)
Weight generation scheme         WeightScheme... Becke
Basis function cutoff            BFCut       ...    1.0000e-11
Integration weight cutoff        WCut        ...    1.0000e-14
Grids for H and He will be reduced by one unit

# of grid points (after initial pruning)     ...   2758 (   0.0 sec)
# of grid points (after weights+screening)   ...   2716 (   0.0 sec)
nearest neighbour list constructed           ...    0.0 sec
Grid point re-assignment to atoms done       ...    0.0 sec
Grid point division into batches done        ...    0.0 sec
Reduced shell lists constructed in    0.0 sec

Total number of grid points                  ...     2716
Total number of batches                      ...       44
Average number of points per batch           ...       61
Average number of grid points per atom       ...      905
Average number of shells per batch           ...     6.86 (76.19%)
Average number of basis functions per batch  ...    10.29 (79.12%)
Average number of large shells per batch     ...     6.29 (91.67%)
Average number of large basis fcns per batch ...     9.43 (91.67%)
Maximum spatial batch extension              ...  13.03, 15.04, 12.25 au
Average spatial batch extension              ...   1.57,  1.86,  1.56 au

Overlap Fitting                  UseSFitting ... on
Constructing numerical overlap ... done (      0.0 sec)
Inverting numerical overlap    ... done (      0.0 sec)
Obtaining analytic overlap     ... done (      0.0 sec)
Final contraction and storage  ... done (      0.0 sec)

Time for X-Grid setup             =    0.364 sec
--------------
SCF ITERATIONS
--------------
ITER       Energy         Delta-E        Max-DP      RMS-DP      [F,P]     Damp
               ***  Starting incremental Fock matrix formation  ***
  0    -75.4092910566   0.000000000000 0.03493129  0.00619583  0.2929674 0.7000
  1    -75.4512458624  -0.041954805802 0.02105402  0.00418943  0.1380699 0.7000
                               ***Turning on DIIS***
  2    -75.4694438552  -0.018197992860 0.03256235  0.00747779  0.0565700 0.0000
  3    -75.4978039507  -0.028360095495 0.01417933  0.00229219  0.0835498 0.0000
  4    -75.5031726017  -0.005368650974 0.00360117  0.00055815  0.0174295 0.0000
  5    -75.5034456290  -0.000273027318 0.00112865  0.00017451  0.0037581 0.0000
  6    -75.5034656880  -0.000020058945 0.00052520  0.00009493  0.0008423 0.0000
               *** Restarting incremental Fock matrix formation ***
                                   *** Resetting DIIS ***
  7    -75.5034795212  -0.000013833215 0.00011949  0.00002420  0.0000450 0.0000
  8    -75.5034797334  -0.000000212255 0.00005648  0.00001160  0.0000142 0.0000
  9    -75.5034797623  -0.000000028858 0.00001356  0.00000271  0.0000019 0.0000
                 **** Energy Check signals convergence ****

               *****************************************************
               *                     SUCCESS                       *
               *           SCF CONVERGED AFTER  10 CYCLES          *
               *****************************************************

Setting up the final grid:

General Integration Accuracy     IntAcc      ...  4.670
Radial Grid Type                 RadialGrid  ... Gauss-Chebyshev
Angular Grid (max. acc.)         AngularGrid ... Lebedev-302
Angular grid pruning method      GridPruning ... 3 (G Style)
Weight generation scheme         WeightScheme... Becke
Basis function cutoff            BFCut       ...    1.0000e-11
Integration weight cutoff        WCut        ...    1.0000e-14
Grids for H and He will be reduced by one unit

# of grid points (after initial pruning)     ...  13000 (   0.0 sec)
# of grid points (after weights+screening)   ...  12874 (   0.0 sec)
nearest neighbour list constructed           ...    0.0 sec
Grid point re-assignment to atoms done       ...    0.0 sec
Grid point division into batches done        ...    0.2 sec
Reduced shell lists constructed in    0.2 sec

Total number of grid points                  ...    12874
Total number of batches                      ...      202
Average number of points per batch           ...       63
Average number of grid points per atom       ...     4291
Average number of shells per batch           ...     4.89 (54.32%)
Average number of basis functions per batch  ...     6.96 (53.56%)
Average number of large shells per batch     ...     4.11 (84.09%)
Average number of large basis fcns per batch ...     5.89 (84.57%)
Maximum spatial batch extension              ...  15.43, 15.43, 12.60 au
Average spatial batch extension              ...   1.07,  1.03,  0.83 au

Final grid set up in    0.3 sec
Final integration                            ... done (   0.0 sec)
Change in XC energy                          ...    -0.000205042
Integrated number of electrons               ...     9.000009470
Previous integrated no of electrons          ...     8.998574483
Old exchange energy                            =     -1.716655158 Eh
New exchange energy                            =     -1.716602404 Eh
Exchange energy change after final integration =      0.000052754 Eh
Total energy after final integration           =    -75.503632050 Eh
Final COS-X integration done in                =     0.104 sec

----------------
TOTAL SCF ENERGY
----------------

Total Energy       :          -75.50363205 Eh           -2054.55828 eV

Components:
Nuclear Repulsion  :            9.11021419 Eh             247.90153 eV
Electronic Energy  :          -84.61384624 Eh           -2302.45981 eV
One Electron Energy:         -117.31236014 Eh           -3192.23161 eV
Two Electron Energy:           32.69851390 Eh             889.77180 eV

Virial components:
Potential Energy   :         -150.52325139 Eh           -4095.94590 eV
Kinetic Energy     :           75.01961934 Eh            2041.38762 eV
Virial Ratio       :            2.00645182


DFT components:
N(Alpha)           :        5.000005062838 electrons
N(Beta)            :        4.000004407535 electrons
N(Total)           :        9.000009470372 electrons
E(X)               :       -6.817481087168 Eh       
E(C)               :       -0.356783276949 Eh       
E(XC)              :       -7.174264364118 Eh       

---------------
SCF CONVERGENCE
---------------

  Last Energy change         ...   -2.5958e-10  Tolerance :   1.0000e-08
  Last MAX-Density change    ...    0.0000e+00  Tolerance :   1.0000e-07
  Last RMS-Density change    ...    0.0000e+00  Tolerance :   5.0000e-09
  Last DIIS Error            ...    1.0734e-06  Tolerance :   5.0000e-07

             **** THE GBW FILE WAS UPDATED (input.gbw) ****
             **** DENSITY FILE WAS UPDATED (input.scfp.tmp) ****
             **** ENERGY FILE WAS UPDATED (input.en.tmp) ****
----------------------
UHF SPIN CONTAMINATION
----------------------

Warning: in a DFT calculation there is little theoretical justification to 
         calculate <S**2> as in Hartree-Fock theory. We will do it anyways
         but you should keep in mind that the values have only limited relevance

Expectation value of <S**2>     :     0.751696
Ideal value S*(S+1) for S=0.5   :     0.750000
Deviation                       :     0.001696

----------------
ORBITAL ENERGIES
----------------
                 SPIN UP ORBITALS
  NO   OCC          E(Eh)            E(eV) 
   0   1.0000     -19.614469      -533.7368 
   1   1.0000      -1.548509       -42.1371 
   2   1.0000      -1.008094       -27.4316 
   3   1.0000      -0.873894       -23.7799 
   4   1.0000      -0.853528       -23.2257 
   5   0.0000      -0.276915        -7.5352 
   6   0.0000      -0.192633        -5.2418 
   7   0.0000       0.523974        14.2580 
   8   0.0000       0.582779        15.8582 
   9   0.0000       0.878441        23.9036 
  10   0.0000       1.030136        28.0314 
  11   0.0000       1.152460        31.3600 
  12   0.0000       2.212885        60.2157 

                 SPIN DOWN ORBITALS
  NO   OCC          E(Eh)            E(eV) 
   0   1.0000     -19.588323      -533.0254 
   1   1.0000      -1.477784       -40.2126 
   2   1.0000      -0.986109       -26.8334 
   3   1.0000      -0.819090       -22.2886 
   4   0.0000      -0.605827       -16.4854 
   5   0.0000      -0.264909        -7.2085 
   6   0.0000      -0.184641        -5.0243 
   7   0.0000       0.521920        14.2022 
   8   0.0000       0.588107        16.0032 
   9   0.0000       0.998058        27.1585 
  10   0.0000       1.052438        28.6383 
  11   0.0000       1.174524        31.9604 
  12   0.0000       2.269805        61.7645 

                    ********************************
                    * MULLIKEN POPULATION ANALYSIS *
                    ********************************

--------------------------------------------
MULLIKEN ATOMIC CHARGES AND SPIN POPULATIONS
--------------------------------------------
   0 H :    0.525121   -0.030917
   1 O :   -0.050243    1.061834
   2 H :    0.525121   -0.030917
Sum of atomic charges         :    1.0000000
Sum of atomic spin populations:    1.0000000

-----------------------------------------------------
MULLIKEN REDUCED ORBITAL CHARGES AND SPIN POPULATIONS
-----------------------------------------------------
CHARGE
  0 H s       :     0.474879  s :     0.474879
  1 O s       :     3.948691  s :     3.948691
      pz      :     1.550776  p :     4.101552
      px      :     1.000000
      py      :     1.550776
  2 H s       :     0.474879  s :     0.474879

SPIN
  0 H s       :    -0.030917  s :    -0.030917
  1 O s       :     0.020588  s :     0.020588
      pz      :     0.020623  p :     1.041246
      px      :     1.000000
      py      :     0.020623
  2 H s       :    -0.030917  s :    -0.030917

-----------------------------------
MULLIKEN ORBITAL POPULATIONS PER MO
-----------------------------------
THRESHOLD FOR PRINTING IS 0.1%
SPIN UP
                      0         1         2         3         4         5   
                 -19.61447  -1.54851  -1.00809  -0.87389  -0.85353  -0.27691
                   1.00000   1.00000   1.00000   1.00000   1.00000   0.00000
                  --------  --------  --------  --------  --------  --------
  0H   1s              0.0       4.7      11.2       0.0       3.2       4.9
  0H   2s              0.1      -0.7       3.1       0.0       0.7      43.6
  1O   1s             97.9       1.2       0.0      -0.0       0.2       0.2
  1O   2s              2.9      18.5      -0.0       0.0       2.7       2.3
  1O   1pz             0.0       1.4      18.4       0.0      19.8       4.0
  1O   1px             0.0       0.0       0.0      52.0       0.0       0.0
  1O   1py             0.0       1.4      18.4       0.0      19.8       4.0
  1O   3s             -0.9      66.4       0.0       0.0       9.6      -6.8
  1O   2pz            -0.0       1.7      17.4       0.0      20.0      -0.4
  1O   2px             0.0       0.0       0.0      48.0       0.0       0.0
  1O   2py            -0.0       1.7      17.4       0.0      20.0      -0.4
  2H   1s              0.0       4.7      11.2       0.0       3.2       4.9
  2H   2s              0.1      -0.7       3.1       0.0       0.7      43.6

                      6         7         8         9        10        11   
                  -0.19263   0.52397   0.58278   0.87844   1.03014   1.15246
                   0.00000   0.00000   0.00000   0.00000   0.00000   0.00000
                  --------  --------  --------  --------  --------  --------
  0H   1s              6.4      33.6      36.6       0.0       1.1      -1.1
  0H   2s             36.1      13.4       9.0       0.0      -0.2      -2.6
  1O   2s             -0.0       0.0       0.8       0.0       1.8      -0.0
  1O   1pz             8.8       1.5       4.4       0.0      20.3      21.4
  1O   1px             0.0       0.0       0.0      48.0       0.0       0.0
  1O   1py             8.8       1.5       4.4       0.0      20.3      21.4
  1O   3s              0.0       0.0      -0.4       0.0      -0.9      -0.0
  1O   2pz            -1.2       1.5      -0.2       0.0      28.3      32.3
  1O   2px            -0.0       0.0       0.0      52.0       0.0       0.0
  1O   2py            -1.2       1.5      -0.2       0.0      28.3      32.3
  2H   1s              6.4      33.6      36.6       0.0       1.1      -1.1
  2H   2s             36.1      13.4       9.0       0.0      -0.2      -2.6

                     12   
                   2.21289
                   0.00000
                  --------
  0H   1s             -0.4
  0H   2s             -2.6
  1O   1s              0.4
  1O   2s             70.9
  1O   1pz             0.2
  1O   1py             0.2
  1O   3s             33.0
  1O   2pz             0.7
  1O   2py             0.7
  2H   1s             -0.4
  2H   2s             -2.6

SPIN DOWN
                      0         1         2         3         4         5   
                 -19.58832  -1.47778  -0.98611  -0.81909  -0.60583  -0.26491
                   1.00000   1.00000   1.00000   1.00000   0.00000   0.00000
                  --------  --------  --------  --------  --------  --------
  0H   1s              0.0       5.8      12.1       3.1       0.0       4.4
  0H   2s              0.1      -0.1       3.6       0.7       0.0      42.9
  1O   1s             97.9       1.1       0.0       0.2       0.0       0.2
  1O   2s              2.9      17.0      -0.0       3.0       0.0       2.3
  1O   1pz             0.0       1.5      17.4      19.0       0.0       4.1
  1O   1px             0.0       0.0       0.0       0.0      45.4       0.0
  1O   1py             0.0       1.5      17.4      19.0       0.0       4.1
  1O   3s             -0.9      63.7       0.0      11.5       0.0      -5.0
  1O   2pz            -0.0       1.8      16.9      19.9       0.0      -0.1
  1O   2px             0.0       0.0       0.0       0.0      54.6      -0.0
  1O   2py            -0.0       1.8      16.9      19.9       0.0      -0.1
  2H   1s              0.0       5.8      12.1       3.1       0.0       4.4
  2H   2s              0.1      -0.1       3.6       0.7       0.0      42.9

                      6         7         8         9        10        11   
                  -0.18464   0.52192   0.58811   0.99806   1.05244   1.17452
                   0.00000   0.00000   0.00000   0.00000   0.00000   0.00000
                  --------  --------  --------  --------  --------  --------
  0H   1s              5.8      33.2      36.2       0.0       0.9      -1.1
  0H   2s             35.4      13.5       9.2      -0.0      -0.2      -2.6
  1O   2s              0.0       0.0       0.9      -0.0       1.8      -0.0
  1O   1pz             9.2       1.6       4.4       0.0      20.8      21.9
  1O   1px             0.0       0.0       0.0      54.6      -0.0       0.0
  1O   1py             9.2       1.6       4.4       0.0      20.8      21.9
  1O   3s              0.0       0.0      -0.3       0.0      -0.8      -0.0
  1O   2pz            -0.4       1.7      -0.2       0.0      27.9      31.8
  1O   2px             0.0       0.0       0.0      45.4       0.0       0.0
  1O   2py            -0.4       1.7      -0.2      -0.0      27.9      31.8
  2H   1s              5.8      33.2      36.2       0.0       0.9      -1.1
  2H   2s             35.4      13.5       9.2      -0.0      -0.2      -2.6

                     12   
                   2.26980
                   0.00000
                  --------
  0H   1s             -0.4
  0H   2s             -2.6
  1O   1s              0.4
  1O   2s             72.1
  1O   1pz             0.2
  1O   1py             0.2
  1O   3s             31.9
  1O   2pz             0.6
  1O   2py             0.6
  2H   1s             -0.4
  2H   2s             -2.6

-------------------------------------------
MULLIKEN REDUCED ORBITAL POPULATIONS PER MO
--------------------------------------------
THRESHOLD FOR PRINTING IS 0.1%
SPIN UP
                      0         1         2         3         4         5   
                 -19.61447  -1.54851  -1.00809  -0.87389  -0.85353  -0.27691
                   1.00000   1.00000   1.00000   1.00000   1.00000   0.00000
                  --------  --------  --------  --------  --------  --------
 0 H  s               0.1       3.9      14.2       0.0       4.0      48.5
 1 O  s              99.9      86.1       0.0       0.0      12.5      -4.3
 1 O  pz              0.0       3.0      35.8       0.0      39.8       3.6
 1 O  px              0.0       0.0       0.0     100.0       0.0       0.0
 1 O  py              0.0       3.0      35.8       0.0      39.8       3.6
 2 H  s               0.1       3.9      14.2       0.0       4.0      48.5

                      6         7         8         9        10        11   
                  -0.19263   0.52397   0.58278   0.87844   1.03014   1.15246
                   0.00000   0.00000   0.00000   0.00000   0.00000   0.00000
                  --------  --------  --------  --------  --------  --------
 0 H  s              42.5      47.0      45.6       0.0       0.9      -3.7
 1 O  s               0.0       0.0       0.5       0.0       1.0      -0.0
 1 O  pz              7.5       3.0       4.1       0.0      48.6      53.7
 1 O  px              0.0       0.0       0.0     100.0       0.0       0.0
 1 O  py              7.5       3.0       4.1       0.0      48.6      53.7
 2 H  s              42.5      47.0      45.6       0.0       0.9      -3.7

                     12   
                   2.21289
                   0.00000
                  --------
 0 H  s              -3.0
 1 O  s             104.3
 1 O  pz              0.8
 1 O  py              0.8
 2 H  s              -3.0

SPIN DOWN
                      0         1         2         3         4         5   
                 -19.58832  -1.47778  -0.98611  -0.81909  -0.60583  -0.26491
                   1.00000   1.00000   1.00000   1.00000   0.00000   0.00000
                  --------  --------  --------  --------  --------  --------
 0 H  s               0.1       5.7      15.7       3.7       0.0      47.3
 1 O  s              99.9      81.8       0.0      14.7       0.0      -2.5
 1 O  pz              0.0       3.4      34.3      38.9       0.0       4.0
 1 O  px              0.0       0.0       0.0       0.0     100.0       0.0
 1 O  py              0.0       3.4      34.3      38.9       0.0       4.0
 2 H  s               0.1       5.7      15.7       3.7       0.0      47.3

                      6         7         8         9        10        11   
                  -0.18464   0.52192   0.58811   0.99806   1.05244   1.17452
                   0.00000   0.00000   0.00000   0.00000   0.00000   0.00000
                  --------  --------  --------  --------  --------  --------
 0 H  s              41.2      46.7      45.4       0.0       0.7      -3.7
 1 O  s               0.0       0.0       0.7       0.0       1.1      -0.0
 1 O  pz              8.8       3.3       4.2       0.0      48.7      53.7
 1 O  px              0.0       0.0       0.0     100.0       0.0       0.0
 1 O  py              8.8       3.3       4.2       0.0      48.7      53.7
 2 H  s              41.2      46.7      45.4       0.0       0.7      -3.7

                     12   
                   2.26980
                   0.00000
                  --------
 0 H  s              -3.0
 1 O  s             104.3
 1 O  pz              0.8
 1 O  py              0.8
 2 H  s              -3.0


                     *******************************
                     * LOEWDIN POPULATION ANALYSIS *
                     *******************************

-------------------------------------------
LOEWDIN ATOMIC CHARGES AND SPIN POPULATIONS
-------------------------------------------
   0 H :    0.364171   -0.024275
   1 O :    0.271658    1.048550
   2 H :    0.364171   -0.024275

----------------------------------------------------
LOEWDIN REDUCED ORBITAL CHARGES AND SPIN POPULATIONS
----------------------------------------------------
CHARGE
  0 H s       :     0.635829  s :     0.635829
  1 O s       :     3.658853  s :     3.658853
      pz      :     1.534745  p :     4.069489
      px      :     1.000000
      py      :     1.534745
  2 H s       :     0.635829  s :     0.635829

SPIN
  0 H s       :    -0.024275  s :    -0.024275
  1 O s       :     0.015853  s :     0.015853
      pz      :     0.016349  p :     1.032698
      px      :     1.000000
      py      :     0.016349
  2 H s       :    -0.024275  s :    -0.024275

----------------------------------
LOEWDIN ORBITAL POPULATIONS PER MO
----------------------------------
THRESHOLD FOR PRINTING IS 0.1%
SPIN UP
                      0         1         2         3         4         5   
                 -19.61447  -1.54851  -1.00809  -0.87389  -0.85353  -0.27691
                   1.00000   1.00000   1.00000   1.00000   1.00000   0.00000
                  --------  --------  --------  --------  --------  --------
  0H   1s              0.0       5.4      10.9       0.0       3.0       4.0
  0H   2s              0.0       6.8       3.9       0.0       0.4      32.4
  1O   1s             96.3       2.5       0.0       0.0       0.3       0.3
  1O   2s              2.9      24.0       0.0       0.0       4.4       8.6
  1O   1pz             0.0       1.3      17.4       0.0      19.3       5.0
  1O   1px             0.0       0.0       0.0      51.7       0.0       0.0
  1O   1py             0.0       1.3      17.4       0.0      19.3       5.0
  1O   3s              0.8      44.5       0.0       0.0       8.1       6.7
  1O   2pz             0.0       0.9      17.7       0.0      20.8       0.8
  1O   2px             0.0       0.0       0.0      48.3       0.0       0.0
  1O   2py             0.0       0.9      17.7       0.0      20.8       0.8
  2H   1s              0.0       5.4      10.9       0.0       3.0       4.0
  2H   2s              0.0       6.8       3.9       0.0       0.4      32.4

                      6         7         8         9        10        11   
                  -0.19263   0.52397   0.58278   0.87844   1.03014   1.15246
                   0.00000   0.00000   0.00000   0.00000   0.00000   0.00000
                  --------  --------  --------  --------  --------  --------
  0H   1s              7.3      31.5      34.9       0.0       2.1       0.2
  0H   2s             29.6      15.0      10.2       0.0       0.0       1.5
  1O   2s              0.0       0.0       0.7       0.0       2.7       0.0
  1O   1pz            11.3       1.4       4.5       0.0      19.8      19.9
  1O   1px             0.0       0.0       0.0      48.3       0.0       0.0
  1O   1py            11.3       1.4       4.5       0.0      19.8      19.9
  1O   2pz             1.8       2.1       0.0       0.0      26.7      28.4
  1O   2px             0.0       0.0       0.0      51.7       0.0       0.0
  1O   2py             1.8       2.1       0.0       0.0      26.7      28.4
  2H   1s              7.3      31.5      34.9       0.0       2.1       0.2
  2H   2s             29.6      15.0      10.2       0.0       0.0       1.5

                     12   
                   2.21289
                   0.00000
                  --------
  0H   1s              0.5
  1O   1s              0.6
  1O   2s             56.8
  1O   1pz             0.1
  1O   1py             0.1
  1O   3s             39.9
  1O   2pz             0.7
  1O   2py             0.7
  2H   1s              0.5

SPIN DOWN
                      0         1         2         3         4         5   
                 -19.58832  -1.47778  -0.98611  -0.81909  -0.60583  -0.26491
                   1.00000   1.00000   1.00000   1.00000   0.00000   0.00000
                  --------  --------  --------  --------  --------  --------
  0H   1s              0.0       6.3      11.8       2.8       0.0       3.6
  0H   2s              0.0       7.4       4.3       0.3       0.0      32.0
  1O   1s             96.3       2.3       0.0       0.4       0.0       0.3
  1O   2s              2.8      22.2       0.0       5.0       0.0       8.8
  1O   1pz             0.0       1.4      16.4      18.6       0.0       5.1
  1O   1px             0.0       0.0       0.0       0.0      46.0       0.0
  1O   1py             0.0       1.4      16.4      18.6       0.0       5.1
  1O   3s              0.8      42.9       0.0       9.5       0.0       7.6
  1O   2pz             0.0       1.1      17.5      20.9       0.0       1.0
  1O   2px             0.0       0.0       0.0       0.0      54.0       0.0
  1O   2py             0.0       1.1      17.5      20.9       0.0       1.0
  2H   1s              0.0       6.3      11.8       2.8       0.0       3.6
  2H   2s              0.0       7.4       4.3       0.3       0.0      32.0

                      6         7         8         9        10        11   
                  -0.18464   0.52192   0.58811   0.99806   1.05244   1.17452
                   0.00000   0.00000   0.00000   0.00000   0.00000   0.00000
                  --------  --------  --------  --------  --------  --------
  0H   1s              6.8      31.3      34.7       0.0       2.0       0.2
  0H   2s             29.2      15.0      10.2       0.0       0.0       1.5
  1O   2s              0.0       0.0       0.8       0.0       2.7       0.0
  1O   1pz            11.8       1.5       4.6       0.0      20.2      20.3
  1O   1px             0.0       0.0       0.0      54.0       0.0       0.0
  1O   1py            11.8       1.5       4.6       0.0      20.2      20.3
  1O   3s              0.0       0.0       0.1       0.0       0.0       0.0
  1O   2pz             2.2       2.2       0.0       0.0      26.4      28.1
  1O   2px             0.0       0.0       0.0      46.0       0.0       0.0
  1O   2py             2.2       2.2       0.0       0.0      26.4      28.1
  2H   1s              6.8      31.3      34.7       0.0       2.0       0.2
  2H   2s             29.2      15.0      10.2       0.0       0.0       1.5

                     12   
                   2.26980
                   0.00000
                  --------
  0H   1s              0.5
  1O   1s              0.6
  1O   2s             57.6
  1O   1pz             0.1
  1O   1py             0.1
  1O   3s             39.2
  1O   2pz             0.7
  1O   2py             0.7
  2H   1s              0.5

------------------------------------------
LOEWDIN REDUCED ORBITAL POPULATIONS PER MO
-------------------------------------------
THRESHOLD FOR PRINTING IS 0.1%
SPIN UP
                      0         1         2         3         4         5   
                 -19.61447  -1.54851  -1.00809  -0.87389  -0.85353  -0.27691
                   1.00000   1.00000   1.00000   1.00000   1.00000   0.00000
                  --------  --------  --------  --------  --------  --------
 0 H  s               0.0      12.3      14.8       0.0       3.4      36.5
 1 O  s              99.9      71.0       0.0       0.0      12.8      15.5
 1 O  pz              0.0       2.2      35.2       0.0      40.2       5.8
 1 O  px              0.0       0.0       0.0     100.0       0.0       0.0
 1 O  py              0.0       2.2      35.2       0.0      40.2       5.8
 2 H  s               0.0      12.3      14.8       0.0       3.4      36.5

                      6         7         8         9        10        11   
                  -0.19263   0.52397   0.58278   0.87844   1.03014   1.15246
                   0.00000   0.00000   0.00000   0.00000   0.00000   0.00000
                  --------  --------  --------  --------  --------  --------
 0 H  s              36.9      46.6      45.1       0.0       2.1       1.7
 1 O  s               0.0       0.0       0.8       0.0       2.8       0.0
 1 O  pz             13.1       3.4       4.5       0.0      46.5      48.3
 1 O  px              0.0       0.0       0.0     100.0       0.0       0.0
 1 O  py             13.1       3.4       4.5       0.0      46.5      48.3
 2 H  s              36.9      46.6      45.1       0.0       2.1       1.7

                     12   
                   2.21289
                   0.00000
                  --------
 0 H  s               0.6
 1 O  s              97.2
 1 O  pz              0.8
 1 O  py              0.8
 2 H  s               0.6

SPIN DOWN
                      0         1         2         3         4         5   
                 -19.58832  -1.47778  -0.98611  -0.81909  -0.60583  -0.26491
                   1.00000   1.00000   1.00000   1.00000   0.00000   0.00000
                  --------  --------  --------  --------  --------  --------
 0 H  s               0.0      13.7      16.0       3.2       0.0      35.6
 1 O  s              99.9      67.4       0.0      14.8       0.0      16.7
 1 O  pz              0.0       2.5      34.0      39.4       0.0       6.1
 1 O  px              0.0       0.0       0.0       0.0     100.0       0.0
 1 O  py              0.0       2.5      34.0      39.4       0.0       6.1
 2 H  s               0.0      13.7      16.0       3.2       0.0      35.6

                      6         7         8         9        10        11   
                  -0.18464   0.52192   0.58811   0.99806   1.05244   1.17452
                   0.00000   0.00000   0.00000   0.00000   0.00000   0.00000
                  --------  --------  --------  --------  --------  --------
 0 H  s              36.0      46.3      44.9       0.0       2.0       1.6
 1 O  s               0.0       0.0       1.0       0.0       2.8       0.0
 1 O  pz             14.0       3.7       4.6       0.0      46.6      48.4
 1 O  px              0.0       0.0       0.0     100.0       0.0       0.0
 1 O  py             14.0       3.7       4.6       0.0      46.6      48.4
 2 H  s              36.0      46.3      44.9       0.0       2.0       1.6

                     12   
                   2.26980
                   0.00000
                  --------
 0 H  s               0.5
 1 O  s              97.3
 1 O  pz              0.8
 1 O  py              0.8
 2 H  s               0.5


                      *****************************
                      * MAYER POPULATION ANALYSIS *
                      *****************************

  NA   - Mulliken gross atomic population
  ZA   - Total nuclear charge
  QA   - Mulliken gross atomic charge
  VA   - Mayer's total valence
  BVA  - Mayer's bonded valence
  FA   - Mayer's free valence

  ATOM       NA         ZA         QA         VA         BVA        FA
  0 H      0.4749     1.0000     0.5251     0.7003     0.6993     0.0010
  1 O      8.0502     8.0000    -0.0502     2.3897     1.3875     1.0022
  2 H      0.4749     1.0000     0.5251     0.7003     0.6993     0.0010

  Mayer bond orders larger than 0.1
B(  0-H ,  1-O ) :   0.6938 B(  1-O ,  2-H ) :   0.6938 

-------
TIMINGS
-------

Total SCF time: 0 days 0 hours 0 min 6 sec 

Total time                  ....       6.394 sec
Sum of individual times     ....       6.361 sec  ( 99.5%)

Fock matrix formation       ....       5.671 sec  ( 88.7%)
  Split-RI-J                ....       3.922 sec  ( 69.2% of F)
  Chain of spheres X        ....       1.345 sec  ( 23.7% of F)
  COS-X 1 center corr.      ....       0.000 sec  (  0.0% of F)
  XC integration            ....       0.185 sec  (  3.3% of F)
    Basis function eval.    ....       0.017 sec  (  9.0% of XC)
    Density eval.           ....       0.007 sec  (  3.5% of XC)
    XC-Functional eval.     ....       0.009 sec  (  4.8% of XC)
    XC-Potential eval.      ....       0.003 sec  (  1.4% of XC)
Diagonalization             ....       0.024 sec  (  0.4%)
Density matrix formation    ....       0.018 sec  (  0.3%)
Population analysis         ....       0.004 sec  (  0.1%)
Initial guess               ....       0.001 sec  (  0.0%)
Orbital Transformation      ....       0.000 sec  (  0.0%)
Orbital Orthonormalization  ....       0.000 sec  (  0.0%)
DIIS solution               ....       0.002 sec  (  0.0%)
Grid generation             ....       0.641 sec  ( 10.0%)

-------------------------   --------------------
FINAL SINGLE POINT ENERGY       -75.503632050283
-------------------------   --------------------


                            ***************************************
                            *     ORCA property calculations      *
                            ***************************************

                                    ---------------------
                                    Active property flags
                                    ---------------------
   (+) Dipole Moment


------------------------------------------------------------------------------
                       ORCA ELECTRIC PROPERTIES CALCULATION
------------------------------------------------------------------------------

Dipole Moment Calculation                       ... on
Quadrupole Moment Calculation                   ... off
Polarizability Calculation                      ... off
GBWName                                         ... input.gbw
Electron density file                           ... input.scfp.tmp

-------------
DIPOLE MOMENT
-------------
                                X             Y             Z
Electronic contribution:     -0.00000       0.10114      -0.10114
Nuclear contribution   :      0.00000       0.70467      -0.70467
                        -----------------------------------------
Total Dipole Moment    :     -0.00000       0.80581      -0.80581
                        -----------------------------------------
Magnitude (a.u.)       :      1.13959
Magnitude (Debye)      :      2.89661


Timings for individual modules:

Sum of individual times         ...        7.931 sec (=   0.132 min)
GTO integral calculation        ...        0.996 sec (=   0.017 min)  12.6 %
SCF iterations                  ...        6.935 sec (=   0.116 min)  87.4 %
                             ****ORCA TERMINATED NORMALLY****
TOTAL RUN TIME: 0 days 0 hours 0 minutes 8 seconds 637 msec
