
                                 *****************
                                 * O   R   C   A *
                                 *****************

           --- An Ab Initio, DFT and Semiempirical electronic structure package ---

                  #######################################################
                  #                        -***-                        #
                  #  Department of molecular theory and spectroscopy    #
                  #              Directorship: Frank Neese              #
                  # Max Planck Institute for Chemical Energy Conversion #
                  #                  D-45470 Muelheim/Ruhr              #
                  #                       Germany                       #
                  #                                                     #
                  #                  All rights reserved                #
                  #                        -***-                        #
                  #######################################################


                         Program Version 3.0.3 - RELEASE   -


 With contributions from (in alphabetic order):
   Ute Becker             : Parallelization
   Dmytro Bykov           : SCF Hessian
   Dmitry Ganyushin       : Spin-Orbit,Spin-Spin,Magnetic field MRCI
   Andreas Hansen         : Spin unrestricted coupled pair/coupled cluster methods
   Dimitrios Liakos       : Extrapolation schemes; parallel MDCI
   Robert Izsak           : Overlap fitted RIJCOSX, COSX-SCS-MP3
   Christian Kollmar      : KDIIS, OOCD, Brueckner-CCSD(T), CCSD density
   Simone Kossmann        : Meta GGA functionals, TD-DFT gradient, OOMP2, MP2 Hessian
   Taras Petrenko         : DFT Hessian,TD-DFT gradient, ASA and ECA modules, normal mode analysis, Resonance Raman, ABS, FL, XAS/XES, NRVS
   Christoph Reimann      : Effective Core Potentials
   Michael Roemelt        : Restricted open shell CIS
   Christoph Riplinger    : Improved optimizer, TS searches, QM/MM, DLPNO-CCSD
   Barbara Sandhoefer     : DKH picture change effects
   Igor Schapiro          : Molecular dynamics
   Kantharuban Sivalingam : CASSCF convergence, NEVPT2
   Boris Wezisla          : Elementary symmetry handling
   Frank Wennmohs         : Technical directorship


 We gratefully acknowledge several colleagues who have allowed us to
 interface, adapt or use parts of their codes:
   Stefan Grimme, W. Hujo, H. Kruse, T. Risthaus : VdW corrections, initial TS optimization,
                                                   DFT functionals, gCP
   Ed Valeev                                     : LibInt (2-el integral package), F12 methods
   Garnet Chan, S. Sharma, R. Olivares           : DMRG
   Ulf Ekstrom                                   : XCFun DFT Library
   Mihaly Kallay                                 : mrcc  (arbitrary order and MRCC methods)
   Andreas Klamt, Michael Diedenhofen            : otool_cosmo (COSMO solvation model)
   Frank Weinhold                                : gennbo (NPA and NBO analysis)
   Christopher J. Cramer and Donald G. Truhlar   : smd solvation model


 Your calculation uses the libint2 library for the computation of 2-el integrals
 For citations please refer to: http://libint.valeyev.net

 This ORCA versions uses:
   CBLAS   interface :  Fast vector & matrix operations
   LAPACKE interface :  Fast linear algebra routines
   SCALAPACK package :  Parallel linear algebra routines


Your calculation utilizes the basis: 3-21G
Cite in your paper:
H - Ne: J.S. Binkley, J.A. Pople, W.J. Hehre, J. Am. Chem. Soc. 102 939 (1980)
Na - Ar: M.S. Gordon, J.S. Binkley, J.A. Pople, W.J. Pietro and W.J. Hehre,
         J. Am. Chem. Soc. 104, 2797 (1983).
 K - Ca: K.D. Dobbs, W.J. Hehre, J. Comput. Chem. 7, 359 (1986).
Ga - Kr: K.D. Dobbs, W.J. Hehre, J. Comput. Chem. 7, 359 (1986).
Sc - Zn: K.D. Dobbs, W.J. Hehre, J. Comput. Chem. 8, 861 (1987).
Y - Cd: K.D. Dobbs, W.J. Hehre, J. Comput. Chem. 8, 880 (1987).
Cs     : A 3-21G quality set derived from the Huzinage MIDI basis sets.
        E.D. Glendening and D. Feller, J. Phys. Chem. (to be published)

================================================================================
                                        WARNINGS
                       Please study these warnings very carefully!
================================================================================
Now building the actual basis set


INFO   : the flag for use of LIBINT has been found!

================================================================================
                                       INPUT FILE
================================================================================
NAME = input.dat
|  1> % pal nprocs 8 end
|  2> 
|  3> ! TightSCF B3LYP 3-21G RIJCOSX AutoAux
|  4> 
|  5> % output
|  6>     Print [P_OrbPopMO_M] 1
|  7>     Print [P_ReducedOrbPopMO_M] 1
|  8>     Print [P_OrbPopMO_L] 1
|  9>     Print [P_ReducedOrbPopMO_L] 1
| 10> end
| 11> 
| 12> % SCF maxiter 300 end
| 13> 
| 14> * xyz 0 1
| 15>     H    0.000000  -0.062001  -0.010865
| 16>     O    0.000000   0.051136   0.948864
| 17>     H    0.000000   1.010865   1.062001
| 18> *
| 19> 
| 20>                          ****END OF INPUT****
================================================================================

                       ****************************
                       * Single Point Calculation *
                       ****************************

---------------------------------
CARTESIAN COORDINATES (ANGSTROEM)
---------------------------------
  H      0.000000   -0.062001   -0.010865
  O      0.000000    0.051136    0.948864
  H      0.000000    1.010865    1.062001

----------------------------
CARTESIAN COORDINATES (A.U.)
----------------------------
  NO LB      ZA    FRAG    MASS        X           Y           Z
   0 H     1.0000    0     1.008          0.000000000000000         -0.117164910029252         -0.020531874445054
   1 O     8.0000    0    15.999          0.000000000000000          0.096633035584197          1.793093098337055
   2 H     1.0000    0     1.008          0.000000000000000          1.910258008366306          2.006891043950503

--------------------------------
INTERNAL COORDINATES (ANGSTROEM)
--------------------------------
 H      0   0   0   0.000000     0.000     0.000
 O      1   0   0   0.966375     0.000     0.000
 H      2   1   0   0.966375   103.446     0.000

---------------------------
INTERNAL COORDINATES (A.U.)
---------------------------
 H      0   0   0   0.000000     0.000     0.000
 O      1   0   0   1.826183     0.000     0.000
 H      2   1   0   1.826183   103.446     0.000

---------------------
BASIS SET INFORMATION
---------------------
There are 2 groups of distinct atoms

 Group   1 Type H   : 3s contracted to 2s pattern {21}
 Group   2 Type O   : 6s3p contracted to 3s2p pattern {321/21}

Atom   0H    basis set group =>   1
Atom   1O    basis set group =>   2
Atom   2H    basis set group =>   1
-------------------------------
AUXILIARY BASIS SET INFORMATION
-------------------------------
There are 2 groups of distinct atoms

 Group   1 Type H   : 6s2p contracted to 6s2p pattern {111111/11}
 Group   2 Type O   : 11s5p2d contracted to 11s5p2d pattern {11111111111/11111/11}

Atom   0H    basis set group =>   1
Atom   1O    basis set group =>   2
Atom   2H    basis set group =>   1

Checking for AutoStart:
The File: input.gbw exists
Trying to determine its content:
     ... Fine, the file contains calculation information
     ... Fine, the calculation information was read
     ... Fine, the file contains a basis set
     ... Fine, the basis set was read
     ... Fine, the file contains a geometry
     ... Fine, the geometry was read
     ... Fine, the file contains a set of orbitals
     ... Fine, the orbitals can be read
     => possible old guess file was deleted
     => GBW file was renamed to GES file
     => GES file is set as startup file
     => Guess is set to MORead
     ... now leaving AutoStart



           ************************************************************
           *        Program running with 8 parallel MPI-processes     *
           *              working on a common directory               *
           ************************************************************
------------------------------------------------------------------------------
                           ORCA GTO INTEGRAL CALCULATION
                           -- RI-GTO INTEGRALS CHOSEN --
------------------------------------------------------------------------------

                         BASIS SET STATISTICS AND STARTUP INFO

Gaussian basis set:
 # of primitive gaussian shells          ...   15
 # of primitive gaussian functions       ...   21
 # of contracted shells                  ...    9
 # of contracted basis functions         ...   13
 Highest angular momentum                ...    1
 Maximum contraction depth               ...    3
Auxiliary gaussian basis set:
 # of primitive gaussian shells          ...   34
 # of primitive gaussian functions       ...   60
 # of contracted shells                  ...   34
 # of contracted aux-basis functions     ...   60
 Highest angular momentum                ...    2
 Maximum contraction depth               ...    1
Ratio of auxiliary to basis functions    ...  4.62
Integral package used                  ... LIBINT
 One Electron integrals                  ... done
 Ordering auxiliary basis shells         ... done
 Integral threshhold             Thresh  ...  2.500e-11
 Primitive cut-off               TCut    ...  2.500e-12
 Pre-screening matrix                    ... done
 Shell pair data                         ... 
 Ordering of the shell pairs             ... done (   0.000 sec) 45 of 45 pairs
 Determination of significant pairs      ... done (   0.000 sec)
 Creation of shell pair data             ... done (   0.000 sec)
 Storage of shell pair data              ... done (   0.000 sec)
 Shell pair data done in (   0.000 sec)
 Computing two index integrals           ... done
 Cholesky decomposition of the V-matrix  ... done


Timings:
 Total evaluation time                   ...   0.187 sec (  0.003 min)
 One electron matrix time                ...   0.009 sec (  0.000 min) =  5.1%
 Schwartz matrix evaluation time         ...   0.140 sec (  0.002 min) = 75.1%
 Two index repulsion integral time       ...   0.005 sec (  0.000 min) =  2.6%
 Cholesky decomposition of V             ...   0.002 sec (  0.000 min) =  1.2%
 Three index repulsion integral time     ...   0.000 sec (  0.000 min) =  0.0%

           ************************************************************
           *              Shut down parallel processing               *
           ************************************************************


           ************************************************************
           *        Program running with 8 parallel MPI-processes     *
           *              working on a common directory               *
           ************************************************************
-------------------------------------------------------------------------------
                                 ORCA SCF
-------------------------------------------------------------------------------

------------
SCF SETTINGS
------------
Hamiltonian:
 Density Functional     Method          .... DFT(GTOs)
 Exchange Functional    Exchange        .... B88
   X-Alpha parameter    XAlpha          ....  0.666667
   Becke's b parameter  XBeta           ....  0.004200
 Correlation Functional Correlation     .... LYP
 LDA part of GGA corr.  LDAOpt          .... VWN-5
 Gradients option       PostSCFGGA      .... off
 Hybrid DFT is turned on
   Fraction HF Exchange ScalHFX         ....  0.200000
   Scaling of DF-GGA-X  ScalDFX         ....  0.720000
   Scaling of DF-GGA-C  ScalDFC         ....  0.810000
   Scaling of DF-LDA-C  ScalLDAC        ....  1.000000
   Perturbative correction              ....  0.000000
   NL short-range parameter             ....  4.800000
 RI-approximation to the Coulomb term is turned on
   Number of auxiliary basis functions  .... 60
   RIJ-COSX (HFX calculated with COS-X)).... on


General Settings:
 Integral files         IntName         .... input
 Hartree-Fock type      HFTyp           .... RHF
 Total Charge           Charge          ....    0
 Multiplicity           Mult            ....    1
 Number of Electrons    NEL             ....   10
 Basis Dimension        Dim             ....   13
 Nuclear Repulsion      ENuc            ....      9.1102141894 Eh

Convergence Acceleration:
 DIIS                   CNVDIIS         .... on
   Start iteration      DIISMaxIt       ....    12
   Startup error        DIISStart       ....  0.200000
   # of expansion vecs  DIISMaxEq       ....     5
   Bias factor          DIISBfac        ....   1.050
   Max. coefficient     DIISMaxC        ....  10.000
 Newton-Raphson         CNVNR           .... off
 SOSCF                  CNVSOSCF        .... on
   Start iteration      SOSCFMaxIt      ....   150
   Startup grad/error   SOSCFStart      ....  0.003300
 Level Shifting         CNVShift        .... on
   Level shift para.    LevelShift      ....    0.2500
   Turn off err/grad.   ShiftErr        ....    0.0010
 Zerner damping         CNVZerner       .... off
 Static damping         CNVDamp         .... on
   Fraction old density DampFac         ....    0.7000
   Max. Damping (<1)    DampMax         ....    0.9800
   Min. Damping (>=0)   DampMin         ....    0.0000
   Turn off err/grad.   DampErr         ....    0.1000
 Fernandez-Rico         CNVRico         .... off

SCF Procedure:
 Maximum # iterations   MaxIter         ....   300
 SCF integral mode      SCFMode         .... Direct
   Integral package                     .... LIBINT
 Reset frequeny         DirectResetFreq ....    20
 Integral Threshold     Thresh          ....  2.500e-11 Eh
 Primitive CutOff       TCut            ....  2.500e-12 Eh

Convergence Tolerance:
 Convergence Check Mode ConvCheckMode   .... Total+1el-Energy
 Energy Change          TolE            ....  1.000e-08 Eh
 1-El. energy change                    ....  1.000e-05 Eh
 Orbital Gradient       TolG            ....  1.000e-05
 Orbital Rotation angle TolX            ....  1.000e-05
 DIIS Error             TolErr          ....  5.000e-07


Diagonalization of the overlap matrix:
Smallest eigenvalue                        ... 1.094e-01
Time for diagonalization                   ...    0.003 sec
Threshold for overlap eigenvalues          ... 1.000e-08
Number of eigenvalues below threshold      ... 0
Time for construction of square roots      ...    0.006 sec
Total time needed                          ...    0.008 sec

---------------------
INITIAL GUESS: MOREAD
---------------------
Guess MOs are being read from file: input.ges
Input Geometry matches current geometry (good)
Input basis set matches current basis set (good)
MOs were renormalized
MOs were reorthogonalized (Cholesky)
                      ------------------
                      INITIAL GUESS DONE (   0.0 sec)
                      ------------------
-------------------
DFT GRID GENERATION
-------------------

General Integration Accuracy     IntAcc      ...  4.340
Radial Grid Type                 RadialGrid  ... Gauss-Chebyshev
Angular Grid (max. acc.)         AngularGrid ... Lebedev-110
Angular grid pruning method      GridPruning ... 3 (G Style)
Weight generation scheme         WeightScheme... Becke
Basis function cutoff            BFCut       ...    1.0000e-11
Integration weight cutoff        WCut        ...    1.0000e-14
Grids for H and He will be reduced by one unit

# of grid points (after initial pruning)     ...   3304 (   0.0 sec)
# of grid points (after weights+screening)   ...   3254 (   0.0 sec)
nearest neighbour list constructed           ...    0.0 sec
Grid point re-assignment to atoms done       ...    0.0 sec
Grid point division into batches done        ...    0.0 sec
Reduced shell lists constructed in    0.0 sec

Total number of grid points                  ...     3254
Total number of batches                      ...       52
Average number of points per batch           ...       62
Average number of grid points per atom       ...     1085
Average number of shells per batch           ...     6.75 (75.00%)
Average number of basis functions per batch  ...    10.00 (76.92%)
Average number of large shells per batch     ...     5.62 (83.33%)
Average number of large basis fcns per batch ...     8.38 (83.75%)
Maximum spatial batch extension              ...  13.46, 16.05, 12.83 au
Average spatial batch extension              ...   1.64,  1.81,  1.54 au

Time for grid setup =    0.024 sec

--------------------
COSX GRID GENERATION
--------------------

General Integration Accuracy     IntAcc      ...  3.340
Radial Grid Type                 RadialGrid  ... Gauss-Chebyshev
Angular Grid (max. acc.)         AngularGrid ... Lebedev-50
Angular grid pruning method      GridPruning ... 3 (G Style)
Weight generation scheme         WeightScheme... Becke
Basis function cutoff            BFCut       ...    1.0000e-11
Integration weight cutoff        WCut        ...    1.0000e-14
Grids for H and He will be reduced by one unit

# of grid points (after initial pruning)     ...   1220 (   0.0 sec)
# of grid points (after weights+screening)   ...   1194 (   0.0 sec)
nearest neighbour list constructed           ...    0.0 sec
Grid point re-assignment to atoms done       ...    0.0 sec
Grid point division into batches done        ...    0.0 sec
Reduced shell lists constructed in    0.0 sec

Total number of grid points                  ...     1194
Total number of batches                      ...       20
Average number of points per batch           ...       59
Average number of grid points per atom       ...      398
Average number of shells per batch           ...     6.75 (75.00%)
Average number of basis functions per batch  ...     9.75 (75.00%)
Average number of large shells per batch     ...     6.00 (88.89%)
Average number of large basis fcns per batch ...     9.00 (92.31%)
Maximum spatial batch extension              ...  13.24, 18.82, 10.36 au
Average spatial batch extension              ...   1.70,  2.37,  1.55 au

Overlap Fitting                  UseSFitting ... on
Constructing numerical overlap ... done (      0.0 sec)
Inverting numerical overlap    ... done (      0.0 sec)
Obtaining analytic overlap     ... done (      0.0 sec)
Final contraction and storage  ... done (      0.0 sec)


General Integration Accuracy     IntAcc      ...  3.670
Radial Grid Type                 RadialGrid  ... Gauss-Chebyshev
Angular Grid (max. acc.)         AngularGrid ... Lebedev-50
Angular grid pruning method      GridPruning ... 3 (G Style)
Weight generation scheme         WeightScheme... Becke
Basis function cutoff            BFCut       ...    1.0000e-11
Integration weight cutoff        WCut        ...    1.0000e-14
Grids for H and He will be reduced by one unit

# of grid points (after initial pruning)     ...   1602 (   0.0 sec)
# of grid points (after weights+screening)   ...   1568 (   0.0 sec)
nearest neighbour list constructed           ...    0.0 sec
Grid point re-assignment to atoms done       ...    0.0 sec
Grid point division into batches done        ...    0.0 sec
Reduced shell lists constructed in    0.0 sec

Total number of grid points                  ...     1568
Total number of batches                      ...       26
Average number of points per batch           ...       60
Average number of grid points per atom       ...      523
Average number of shells per batch           ...     6.60 (73.33%)
Average number of basis functions per batch  ...     9.80 (75.38%)
Average number of large shells per batch     ...     6.40 (96.97%)
Average number of large basis fcns per batch ...     9.60 (97.96%)
Maximum spatial batch extension              ...  15.04, 16.35, 12.47 au
Average spatial batch extension              ...   2.02,  2.31,  1.79 au

Overlap Fitting                  UseSFitting ... on
Constructing numerical overlap ... done (      0.0 sec)
Inverting numerical overlap    ... done (      0.0 sec)
Obtaining analytic overlap     ... done (      0.0 sec)
Final contraction and storage  ... done (      0.0 sec)


General Integration Accuracy     IntAcc      ...  4.010
Radial Grid Type                 RadialGrid  ... Gauss-Chebyshev
Angular Grid (max. acc.)         AngularGrid ... Lebedev-110
Angular grid pruning method      GridPruning ... 3 (G Style)
Weight generation scheme         WeightScheme... Becke
Basis function cutoff            BFCut       ...    1.0000e-11
Integration weight cutoff        WCut        ...    1.0000e-14
Grids for H and He will be reduced by one unit

# of grid points (after initial pruning)     ...   2758 (   0.0 sec)
# of grid points (after weights+screening)   ...   2716 (   0.0 sec)
nearest neighbour list constructed           ...    0.0 sec
Grid point re-assignment to atoms done       ...    0.0 sec
Grid point division into batches done        ...    0.0 sec
Reduced shell lists constructed in    0.0 sec

Total number of grid points                  ...     2716
Total number of batches                      ...       44
Average number of points per batch           ...       61
Average number of grid points per atom       ...      905
Average number of shells per batch           ...     6.86 (76.19%)
Average number of basis functions per batch  ...    10.29 (79.12%)
Average number of large shells per batch     ...     6.29 (91.67%)
Average number of large basis fcns per batch ...     9.43 (91.67%)
Maximum spatial batch extension              ...  13.03, 15.04, 12.25 au
Average spatial batch extension              ...   1.57,  1.86,  1.56 au

Overlap Fitting                  UseSFitting ... on
Constructing numerical overlap ... done (      0.0 sec)
Inverting numerical overlap    ... done (      0.0 sec)
Obtaining analytic overlap     ... done (      0.0 sec)
Final contraction and storage  ... done (      0.0 sec)

Time for X-Grid setup             =    0.203 sec
--------------
SCF ITERATIONS
--------------
ITER       Energy         Delta-E        Max-DP      RMS-DP      [F,P]     Damp
               ***  Starting incremental Fock matrix formation  ***
                      *** Initiating the SOSCF procedure ***
                      *** Re-Reading the Fockian *** 
                      *** Removing any level shift *** 
ITER      Energy       Delta-E        Grad      Rot      Max-DP    RMS-DP
  0    -75.93534148 -75.9353414832  0.000001  0.000001  0.000001  0.000000
               *** Restarting incremental Fock matrix formation ***
                  ***Gradient check signals convergence***
              ***Rediagonalizing the Fockian in SOSCF/NRSCF***

               *****************************************************
               *                     SUCCESS                       *
               *           SCF CONVERGED AFTER   1 CYCLES          *
               *****************************************************

Setting up the final grid:

General Integration Accuracy     IntAcc      ...  4.670
Radial Grid Type                 RadialGrid  ... Gauss-Chebyshev
Angular Grid (max. acc.)         AngularGrid ... Lebedev-302
Angular grid pruning method      GridPruning ... 3 (G Style)
Weight generation scheme         WeightScheme... Becke
Basis function cutoff            BFCut       ...    1.0000e-11
Integration weight cutoff        WCut        ...    1.0000e-14
Grids for H and He will be reduced by one unit

# of grid points (after initial pruning)     ...  13000 (   0.0 sec)
# of grid points (after weights+screening)   ...  12874 (   0.0 sec)
nearest neighbour list constructed           ...    0.0 sec
Grid point re-assignment to atoms done       ...    0.0 sec
Grid point division into batches done        ...    0.1 sec
Reduced shell lists constructed in    0.1 sec

Total number of grid points                  ...    12874
Total number of batches                      ...      202
Average number of points per batch           ...       63
Average number of grid points per atom       ...     4291
Average number of shells per batch           ...     4.89 (54.32%)
Average number of basis functions per batch  ...     6.96 (53.56%)
Average number of large shells per batch     ...     4.11 (84.09%)
Average number of large basis fcns per batch ...     5.89 (84.57%)
Maximum spatial batch extension              ...  15.43, 15.43, 12.60 au
Average spatial batch extension              ...   1.07,  1.03,  0.83 au

Final grid set up in    0.1 sec
Final integration                            ... done (   0.0 sec)
Change in XC energy                          ...    -0.000445123
Integrated number of electrons               ...    10.000009181
Previous integrated no of electrons          ...     9.997310697
Old exchange energy                            =     -1.793111858 Eh
New exchange energy                            =     -1.792960664 Eh
Exchange energy change after final integration =      0.000151193 Eh
Total energy after final integration           =    -75.935635413 Eh
Final COS-X integration done in                =     0.051 sec

----------------
TOTAL SCF ENERGY
----------------

Total Energy       :          -75.93563541 Eh           -2066.31369 eV

Components:
Nuclear Repulsion  :            9.11021419 Eh             247.90153 eV
Electronic Energy  :          -85.04584960 Eh           -2314.21522 eV

One Electron Energy:         -122.58438213 Eh           -3335.69062 eV
Two Electron Energy:           37.53853253 Eh            1021.47540 eV

Virial components:
Potential Energy   :         -151.47535755 Eh           -4121.85403 eV
Kinetic Energy     :           75.53972214 Eh            2055.54034 eV
Virial Ratio       :            2.00524113


DFT components:
N(Alpha)           :        5.000004590588 electrons
N(Beta)            :        5.000004590588 electrons
N(Total)           :       10.000009181175 electrons
E(X)               :       -7.124102886825 Eh       
E(C)               :       -0.401415186597 Eh       
E(XC)              :       -7.525518073422 Eh       

---------------
SCF CONVERGENCE
---------------

  Last Energy change         ...   -5.2269e-10  Tolerance :   1.0000e-08
  Last MAX-Density change    ...    4.4409e-16  Tolerance :   1.0000e-07
  Last RMS-Density change    ...    6.3621e-17  Tolerance :   5.0000e-09
  Last Orbital Gradient      ...    5.5234e-07  Tolerance :   1.0000e-05
  Last Orbital Rotation      ...    4.0712e-07  Tolerance :   1.0000e-05

             **** THE GBW FILE WAS UPDATED (input.gbw) ****
             **** DENSITY FILE WAS UPDATED (input.scfp.tmp) ****
             **** ENERGY FILE WAS UPDATED (input.en.tmp) ****
----------------
ORBITAL ENERGIES
----------------

  NO   OCC          E(Eh)            E(eV) 
   0   2.0000     -18.993956      -516.8518 
   1   2.0000      -0.985618       -26.8200 
   2   2.0000      -0.499050       -13.5798 
   3   2.0000      -0.324448        -8.8287 
   4   2.0000      -0.254662        -6.9297 
   5   0.0000       0.100396         2.7319 
   6   0.0000       0.192050         5.2259 
   7   0.0000       0.926577        25.2134 
   8   0.0000       1.013964        27.5914 
   9   0.0000       1.442083        39.2411 
  10   0.0000       1.525226        41.5035 
  11   0.0000       1.644769        44.7564 
  12   0.0000       2.753790        74.9344 

                    ********************************
                    * MULLIKEN POPULATION ANALYSIS *
                    ********************************

-----------------------
MULLIKEN ATOMIC CHARGES
-----------------------
   0 H :    0.324479
   1 O :   -0.648959
   2 H :    0.324479
Sum of atomic charges:   -0.0000000

--------------------------------
MULLIKEN REDUCED ORBITAL CHARGES
--------------------------------
  0 H s       :     0.675521  s :     0.675521
  1 O s       :     3.905712  s :     3.905712
      pz      :     1.371623  p :     4.743247
      px      :     2.000000
      py      :     1.371624
  2 H s       :     0.675521  s :     0.675521

-----------------------------------
MULLIKEN ORBITAL POPULATIONS PER MO
-----------------------------------
THRESHOLD FOR PRINTING IS 0.1%
                      0         1         2         3         4         5   
                 -18.99396  -0.98562  -0.49905  -0.32445  -0.25466   0.10040
                   2.00000   2.00000   2.00000   2.00000   2.00000   0.00000
                  --------  --------  --------  --------  --------  --------
  0H   1s              0.0       6.0      12.8       3.6       0.0       1.8
  0H   2s              0.1       1.7       7.7       1.9       0.0      42.9
  1O   1s             97.9       1.1       0.0       0.2       0.0       0.2
  1O   2s              2.9      15.6      -0.0       2.8       0.0       1.4
  1O   3s             -0.9      62.1      -0.0      13.6       0.0      -4.0
  1O   1pz             0.0       1.3      14.3      15.9       0.0       4.5
  1O   1px             0.0       0.0       0.0       0.0      44.6       0.0
  1O   1py             0.0       1.3      14.3      15.9       0.0       4.5
  1O   2pz            -0.0       1.6      15.3      20.3       0.0       2.0
  1O   2px             0.0       0.0       0.0       0.0      55.4       0.0
  1O   2py            -0.0       1.6      15.3      20.3       0.0       2.0
  2H   1s              0.0       6.0      12.8       3.6       0.0       1.8
  2H   2s              0.1       1.7       7.7       1.9       0.0      42.9

                      6         7         8         9        10        11   
                   0.19205   0.92658   1.01396   1.44208   1.52523   1.64477
                   0.00000   0.00000   0.00000   0.00000   0.00000   0.00000
                  --------  --------  --------  --------  --------  --------
  0H   1s              1.8      36.5      38.6      -0.0       0.4      -1.1
  0H   2s             36.1       9.0       6.3      -0.0      -0.3      -2.8
  1O   2s             -0.0       0.0       1.3       0.0       1.8      -0.0
  1O   3s              0.0       0.0       0.1       0.0      -0.6      -0.0
  1O   1pz             9.2       2.2       4.5       0.0      23.6      24.4
  1O   1px             0.0       0.0       0.0      55.4       0.0       0.0
  1O   1py             9.2       2.2       4.5       0.0      23.6      24.4
  1O   2pz             2.9       2.3      -0.1       0.0      25.5      29.6
  1O   2px             0.0       0.0      -0.0      44.6       0.0       0.0
  1O   2py             2.9       2.3      -0.1       0.0      25.5      29.6
  2H   1s              1.8      36.5      38.6      -0.0       0.4      -1.1
  2H   2s             36.1       9.0       6.3      -0.0      -0.3      -2.8

                     12   
                   2.75379
                   0.00000
                  --------
  0H   1s             -0.5
  0H   2s             -2.6
  1O   1s              0.5
  1O   2s             74.2
  1O   3s             29.8
  1O   1pz             0.2
  1O   1py             0.2
  1O   2pz             0.7
  1O   2py             0.7
  2H   1s             -0.5
  2H   2s             -2.6

-------------------------------------------
MULLIKEN REDUCED ORBITAL POPULATIONS PER MO
--------------------------------------------
THRESHOLD FOR PRINTING IS 0.1%
                      0         1         2         3         4         5   
                 -18.99396  -0.98562  -0.49905  -0.32445  -0.25466   0.10040
                   2.00000   2.00000   2.00000   2.00000   2.00000   0.00000
                  --------  --------  --------  --------  --------  --------
 0 H  s               0.1       7.8      20.5       5.5       0.0      44.7
 1 O  s              99.9      78.8      -0.0      16.6       0.0      -2.4
 1 O  pz              0.0       2.8      29.5      36.2       0.0       6.5
 1 O  px              0.0       0.0       0.0       0.0     100.0       0.0
 1 O  py              0.0       2.8      29.5      36.2       0.0       6.5
 2 H  s               0.1       7.8      20.5       5.5       0.0      44.7

                      6         7         8         9        10        11   
                   0.19205   0.92658   1.01396   1.44208   1.52523   1.64477
                   0.00000   0.00000   0.00000   0.00000   0.00000   0.00000
                  --------  --------  --------  --------  --------  --------
 0 H  s              37.9      45.6      44.9      -0.0       0.2      -3.9
 1 O  s               0.0       0.0       1.4       0.0       1.3      -0.0
 1 O  pz             12.1       4.4       4.4       0.0      49.2      53.9
 1 O  px              0.0       0.0       0.0     100.0       0.0       0.0
 1 O  py             12.1       4.4       4.4       0.0      49.2      53.9
 2 H  s              37.9      45.6      44.9      -0.0       0.2      -3.9

                     12   
                   2.75379
                   0.00000
                  --------
 0 H  s              -3.1
 1 O  s             104.4
 1 O  pz              0.9
 1 O  py              0.9
 2 H  s              -3.1


                     *******************************
                     * LOEWDIN POPULATION ANALYSIS *
                     *******************************

----------------------
LOEWDIN ATOMIC CHARGES
----------------------
   0 H :    0.213005
   1 O :   -0.426010
   2 H :    0.213005

-------------------------------
LOEWDIN REDUCED ORBITAL CHARGES
-------------------------------
  0 H s       :     0.786995  s :     0.786995
  1 O s       :     3.641192  s :     3.641192
      pz      :     1.392409  p :     4.784818
      px      :     2.000000
      py      :     1.392409
  2 H s       :     0.786995  s :     0.786995

----------------------------------
LOEWDIN ORBITAL POPULATIONS PER MO
----------------------------------
THRESHOLD FOR PRINTING IS 0.1%
                      0         1         2         3         4         5   
                 -18.99396  -0.98562  -0.49905  -0.32445  -0.25466   0.10040
                   2.00000   2.00000   2.00000   2.00000   2.00000   0.00000
                  --------  --------  --------  --------  --------  --------
  0H   1s              0.0       6.6      12.9       3.4       0.0       1.6
  0H   2s              0.0       8.6       6.8       1.0       0.0      32.5
  1O   1s             96.3       2.3       0.0       0.4       0.0       0.3
  1O   2s              2.8      20.7       0.0       5.4       0.0       7.8
  1O   3s              0.8      42.3       0.0      11.0       0.0       8.0
  1O   1pz             0.0       1.2      13.3      15.7       0.0       5.7
  1O   1px             0.0       0.0       0.0       0.0      45.3       0.0
  1O   1py             0.0       1.2      13.3      15.7       0.0       5.7
  1O   2pz             0.0       1.0      17.1      21.5       0.0       2.2
  1O   2px             0.0       0.0       0.0       0.0      54.7       0.0
  1O   2py             0.0       1.0      17.1      21.5       0.0       2.2
  2H   1s              0.0       6.6      12.9       3.4       0.0       1.6
  2H   2s              0.0       8.6       6.8       1.0       0.0      32.5

                      6         7         8         9        10        11   
                   0.19205   0.92658   1.01396   1.44208   1.52523   1.64477
                   0.00000   0.00000   0.00000   0.00000   0.00000   0.00000
                  --------  --------  --------  --------  --------  --------
  0H   1s              3.0      34.1      36.5       0.0       1.5       0.1
  0H   2s             31.2      10.9       7.7       0.0       0.0       1.1
  1O   1s              0.0       0.0       0.1       0.0       0.1       0.0
  1O   2s              0.0       0.0       1.4       0.0       2.6       0.0
  1O   3s              0.0       0.0       0.2       0.0       0.0       0.0
  1O   1pz            11.9       2.2       4.7       0.0      22.7      22.6
  1O   1px             0.0       0.0       0.0      54.7       0.0       0.0
  1O   1py            11.9       2.2       4.7       0.0      22.7      22.6
  1O   2pz             3.9       2.8       0.2       0.0      24.5      26.3
  1O   2px             0.0       0.0       0.0      45.3       0.0       0.0
  1O   2py             3.9       2.8       0.2       0.0      24.5      26.3
  2H   1s              3.0      34.1      36.5       0.0       1.5       0.1
  2H   2s             31.2      10.9       7.7       0.0       0.0       1.1

                     12   
                   2.75379
                   0.00000
                  --------
  0H   1s              0.5
  1O   1s              0.6
  1O   2s             59.2
  1O   3s             37.6
  1O   1pz             0.1
  1O   1py             0.1
  1O   2pz             0.7
  1O   2py             0.7
  2H   1s              0.5

------------------------------------------
LOEWDIN REDUCED ORBITAL POPULATIONS PER MO
-------------------------------------------
THRESHOLD FOR PRINTING IS 0.1%
                      0         1         2         3         4         5   
                 -18.99396  -0.98562  -0.49905  -0.32445  -0.25466   0.10040
                   2.00000   2.00000   2.00000   2.00000   2.00000   0.00000
                  --------  --------  --------  --------  --------  --------
 0 H  s               0.0      15.2      19.6       4.4       0.0      34.1
 1 O  s              99.9      65.3       0.0      16.9       0.0      16.1
 1 O  pz              0.0       2.1      30.4      37.1       0.0       7.9
 1 O  px              0.0       0.0       0.0       0.0     100.0       0.0
 1 O  py              0.0       2.1      30.4      37.1       0.0       7.9
 2 H  s               0.0      15.2      19.6       4.4       0.0      34.1

                      6         7         8         9        10        11   
                   0.19205   0.92658   1.01396   1.44208   1.52523   1.64477
                   0.00000   0.00000   0.00000   0.00000   0.00000   0.00000
                  --------  --------  --------  --------  --------  --------
 0 H  s              34.2      45.0      44.3       0.0       1.5       1.2
 1 O  s               0.0       0.0       1.7       0.0       2.7       0.0
 1 O  pz             15.8       5.0       4.9       0.0      47.2      48.8
 1 O  px              0.0       0.0       0.0     100.0       0.0       0.0
 1 O  py             15.8       5.0       4.9       0.0      47.2      48.8
 2 H  s              34.2      45.0      44.3       0.0       1.5       1.2

                     12   
                   2.75379
                   0.00000
                  --------
 0 H  s               0.5
 1 O  s              97.4
 1 O  pz              0.8
 1 O  py              0.8
 2 H  s               0.5


                      *****************************
                      * MAYER POPULATION ANALYSIS *
                      *****************************

  NA   - Mulliken gross atomic population
  ZA   - Total nuclear charge
  QA   - Mulliken gross atomic charge
  VA   - Mayer's total valence
  BVA  - Mayer's bonded valence
  FA   - Mayer's free valence

  ATOM       NA         ZA         QA         VA         BVA        FA
  0 H      0.6755     1.0000     0.3245     0.8576     0.8576     0.0000
  1 O      8.6490     8.0000    -0.6490     1.7068     1.7068    -0.0000
  2 H      0.6755     1.0000     0.3245     0.8576     0.8576     0.0000

  Mayer bond orders larger than 0.1
B(  0-H ,  1-O ) :   0.8534 B(  1-O ,  2-H ) :   0.8534 

-------
TIMINGS
-------

Total SCF time: 0 days 0 hours 0 min 0 sec 

Total time                  ....       0.914 sec
Sum of individual times     ....       0.737 sec  ( 80.7%)

Fock matrix formation       ....       0.404 sec  ( 44.1%)
  Coulomb formation         ....       0.362 sec  ( 89.7% of F)
  Split-RI-J                ....       0.256 sec  ( 63.5% of F)
  Chain of spheres X        ....       0.148 sec  ( 36.6% of F)
  XC integration            ....       0.021 sec  (  5.2% of F)
    Basis function eval.    ....       0.002 sec  ( 10.8% of XC)
    Density eval.           ....       0.001 sec  (  6.6% of XC)
    XC-Functional eval.     ....       0.003 sec  ( 14.2% of XC)
    XC-Potential eval.      ....       0.001 sec  (  3.0% of XC)
Diagonalization             ....       0.000 sec  (  0.0%)
Density matrix formation    ....       0.001 sec  (  0.1%)
Population analysis         ....       0.006 sec  (  0.6%)
Initial guess               ....       0.006 sec  (  0.6%)
Orbital Transformation      ....       0.000 sec  (  0.0%)
Orbital Orthonormalization  ....       0.000 sec  (  0.0%)
DIIS solution               ....       0.000 sec  (  0.0%)
SOSCF solution              ....       0.001 sec  (  0.1%)
Grid generation             ....       0.320 sec  ( 35.1%)
           ************************************************************
           *              Shut down parallel processing               *
           ************************************************************

-------------------------   --------------------
FINAL SINGLE POINT ENERGY       -75.935635413375
-------------------------   --------------------


                            ***************************************
                            *     ORCA property calculations      *
                            ***************************************

                                    ---------------------
                                    Active property flags
                                    ---------------------
   (+) Dipole Moment


------------------------------------------------------------------------------
                       ORCA ELECTRIC PROPERTIES CALCULATION
------------------------------------------------------------------------------

Dipole Moment Calculation                       ... on
Quadrupole Moment Calculation                   ... off
Polarizability Calculation                      ... off
GBWName                                         ... input.gbw
Electron density file                           ... input.scfp.tmp

-------------
DIPOLE MOMENT
-------------
                                X             Y             Z
Electronic contribution:      0.00000      -0.07686       0.07686
Nuclear contribution   :      0.00000       0.70467      -0.70467
                        -----------------------------------------
Total Dipole Moment    :      0.00000       0.62781      -0.62781
                        -----------------------------------------
Magnitude (a.u.)       :      0.88785
Magnitude (Debye)      :      2.25674


Timings for individual modules:

Sum of individual times         ...        3.401 sec (=   0.057 min)
GTO integral calculation        ...        1.346 sec (=   0.022 min)  39.6 %
SCF iterations                  ...        2.054 sec (=   0.034 min)  60.4 %
                             ****ORCA TERMINATED NORMALLY****
TOTAL RUN TIME: 0 days 0 hours 0 minutes 5 seconds 736 msec
