 --invoking executable xinitenv
 --executable xinitenv finished with status            0
 --invoking executable xjoda


   *************************************************************************
         <<<     CCCCCC     CCCCCC   |||     CCCCCC     CCCCCC   >>>
       <<<      CCC        CCC       |||    CCC        CCC         >>>
      <<<      CCC        CCC        |||   CCC        CCC            >>>
    <<<        CCC        CCC        |||   CCC        CCC              >>>
      <<<      CCC        CCC        |||   CCC        CCC            >>>
       <<<      CCC        CCC       |||    CCC        CCC         >>>
         <<<     CCCCCC     CCCCCC   |||     CCCCCC     CCCCCC   >>>
   *************************************************************************

     ****************************************************************
     * CFOUR Coupled-Cluster techniques for Computational Chemistry *
     ****************************************************************
 

   Department of Chemistry                Institut fuer Physikalische Chemie
   University of Texas at Austin          Universitaet Mainz
   Austin, TX  78712, USA                 D-55099 Mainz, Germany
 
                       Version 1.0
 
                     v4                                                
                     Fri Mar  6 05:16:58 EST 2015                      
                     integer*8 version is running
 
    -------------------------------------------------------------------
                    Input from ZMAT file
    -------------------------------------------------------------------
 
 Water                                                                          
 O                                                                              
 H 1 r1*                                                                        
 H 1 r1* 2 a1*                                                                  
                                                                                
 r1 = 0.85                                                                      
 a1 = 104.5                                                                     
                                                                                
 *CFOUR(CALC_LEVEL=CCSD,CC_PROG=ECC                                             
 FROZEN_CORE=ON                                                                 
 REFERENCE=RHF                                                                  
 BASIS=3-21G,ABCDTYPE=AOBASIS                                                   
 MEMORY=7,MEM_UNIT=GB                                                           
 MULTIPLICITY=1,CHARGE=0)                                                       
                                                                                
 
 
     PARALLEL RUN STARTED ON            4  NODES.
 
    -------------------------------------------------------------------
                    CFOUR Control Parameters 
    -------------------------------------------------------------------
        External           Internal           Value            Units
          Name               Name
    -------------------------------------------------------------------
       PRINT                IPRNT               0               ***   
       CALCLEVEL            ICLLVL           CCSD       [ 10]   ***   
       DERIV_LEV            IDRLVL            FIRST     [  1]   ***   
       CC_CONV              ICCCNV          10D-  7             ***   
       SCF_CONV             ISCFCV          10D-  7             ***   
       XFORM_TOL            IXFTOL          10D- 11             ***   
       CC_MAXCYC            ICCCYC             50              cycles 
       LINDEP_TOL           ILINDP              8               ***   
       RDO                  IRDOFM              ON      [  1]   ***   
  
       SCF_EXTRAPO          IRPP                ON      [  1]   ***   
       REFERENCE            IREFNC             RHF      [  0]   ***   
       CC_EXPORDER          ICCEOR              5               ***   
       TAMP_SUM             IEVERY              5               ***   
       NTOP_TAMP            ITOPT2             15               ***   
       CCORBOPT             ICCORB             OFF      [  0] x 0.01  
       SCF_MAXCYC           ISCFCY            150              cycles 
       OCCUPATION           IOCCU   ESTIMATED BY SCF 
       PROPS                IPROPS             OFF      [  0]   ***   
       RELAX_DENS           IRDENS              ON      [  1]   ***   
  
       SCF_EXPORDE          IRPPOR              6               ***   
       CC_EXTRAPOL          ICCEXT             DIIS     [  1]   ***   
       BRUECKNER            IBRKNR             OFF      [  0]   ***   
       XFIELD               IXEFLD              0             x 10-6  
       YFIELD               IYEFLD              0             x 10-6  
       ZFIELD               IZEFLD              0             x 10-6  
       SAVE_INTS            ISVINT             OFF      [  0]   ***   
       DROPMO               IDRPMO      NONE         
       CHARGE               ICHRGE              0               ***   
       MULTIPLICTY          IMULTP              1               ***   
  
       CPHF_CONVER          ICPHFT          10D- 16             ***   
       CPHF_MAXCYC          ICPHFC             64              cycles 
       INCORE               INCORE             OFF      [  0]   ***   
       MEMORY_SIZE          IMEMSZ         875000000           words  
       FILE_RECSIZ          IFLREC              4096           words  
       NON-HF               INONHF             OFF      [  0]   ***   
       ORBITALS             IORBTP           STANDARD   [  0]   ***   
  
       SCF_EXPSTAR          IRPPLS              8               ***   
       LOCK_ORBOCC          ILOCOC             OFF      [  0]   ***   
       HBAR                 IHBAR              OFF      [  0]   ***   
       CACHE_RECS           ICHREC             10               ***   
       GUESS                IGUESS            MOREAD    [  0]   ***   
       JODA_PRINT           IJPRNT              0               ***   
       GEO_METHOD           INR                NR       [  0]   ***   
       GEO_CONV             ICONTL              5              H/bohr 
       EIGENVECTOR          IVEC                1               ***   
  
       NEGEVAL              IDIE             ABORT      [  0]   ***   
       CURVILINEAR          ICURVY            OFF       [  0]   ***   
       SCALE_ON             ISTCRT              0               ***   
       GEO_MAXSTEP          IMXSTP            300            millibohr
       VIBRATION            IVIB              NO        [  0]   ***   
       EVAL_HESS            IRECAL              0            # of cyc.
       INTEGRALS            INTTYP             VMOL     [  1]   ***   
       FD_STEPSIZE          IDISFD              0            10-4 bohr
       POINTS               IGRDFD              0               ***   
       CONTRACTION          ICNTYP          GENERAL     [  1]   ***   
  
       SYMMETRY             ISYM             ON         [  0]   ***   
       BASIS                IBASIS         3-21G        [  5]   ***   
       SPHERICAL            IDFGHI             ON       [  1]   ***   
       RESET_FLAGS          IRESET             OFF      [  0]   ***   
       PERT_ORB             IPTORB         CANONICAL    [  1]   ***   
       GENBAS_1             IGNBS1              0               ***   
       GENBAS_2             IGNBS2              0               ***   
       GENBAS_3             IGNBS3              0               ***   
       COORDINATES          ICOORD         INTERNAL     [  0]   ***   
       SYM_CHECK            ISYMCK         OVERRIDE     [  1]   ***   
  
       SCF_PRINT            ISCFPR              0               ***   
       ECP                  IECP           OFF          [  0]   ***   
       RESTART_CC           ICCRES         OFF          [  0]   ***   
       TRANS_INV            ITRAIN         USE          [  0]   ***   
       HFSTABILITY          ISTABL         OFF          [  0]   ***   
       ROT_EVEC             ROTVEC              0               ***   
       BRUCK_CONV           IBRTOL          10D-  4             ***   
       UNITS                IUNITS         ANGSTROM     [  0]   ***   
       FD_USEGROUP          IFDGRP         FULL         [  0]   ***   
  
       FD_PROJECT           IFDPRJ         ON           [  0]   ***   
       FD_CALTYPE           IFDCAL         GRADONLY     [  0]   ***   
       VTRAN                IVTRAN         PARTIAL      [  2]   ***   
       HF2_FILE             IHF2Fl         USE          [  1]   ***   
       SUBGROUP             ISUBGP         DEFAULT      [  0]   ***   
       SUBGRPAXIS           ISBXYZ         X            [  0]   ***   
       EXCITE               IEXCIT         NONE         [  0]   ***   
       LINEQ_CONV           IZTACN          10D-  7           cycles  
  
       TREAT_PERT           ITREAT         SIMULTANEOUS [  0]   ***   
       ESTATE_PROP          IEXPRP         OFF          [  0]   ***   
       GEO_MAXCYC           IOPTCY             50               ***   
       ABCDTYPE             IABCDT         AOBASIS      [  2]   ***   
       AO_LADDERS           IAOLAD         SINGLEPASS   [  1]   ***   
       FOCK                 IFOCK          AO           [  1]   ***   
       ESTATE_MAXC          IEXMXC             20               ***   
       ESTATE_CONV          IEXTOL          10D-  5             ***   
       DIRECT               IDIRCT         OFF          [  0]   ***   
  
       GAMMA_ABCD           IGABCD         DIRECT       [  1]   ***   
       LINEQ_TYPE           ILTYPE         DIIS         [  1]   ***   
       LINEQ_MAXCY          ILMAXC             50               ***   
       TRANGRAD             IRESRM         OFF          [  0]   ***   
       PSI                  IPSI           OFF          [  0]   ***   
       GAMMA_ABCI           IGABCI         STORE        [  0]   ***   
       ESTATE_DIAG          IEXDIG         ITERATIVE    [  0]   ***   
       FC_FIELD             IFINFC              0             x 10-6  
       SD_FIELD             IFINSD              0             x 10-6  
       DIFF_TYPE            IDIFTY         RELAXED      [  0]   ***   
  
       LINEQ_EXPOR          ILMAXD              5               ***   
       FINITE_PERT          IFIPER              0             x 10-6  
       ANHARMONIC           IANHAR         OFF          [  0]   ***   
       CC_PROGRAM           ICCPRO         ECC          [  1]   ***   
       OPEN-SHELL           IOPEN          SPIN-ORBITAL [  0]   ***   
       UIJ_THRESHO          IUIJTH             25               ***   
       SCF_DAMPING          IDAMP               0             x 10-3  
       PROP_INTEGR          IINTYP         INTERNAL     [  0]   ***   
       ANH_SYMMETR          IANHSM         ABELIAN      [  0]   ***   
       ANH_ALGORIT          IANALG         STANDARD     [  0]   ***   
  
       EOM_NONIT            EOMNON         OFF          [  0]   ***   
       VIB_ALGORIT          IGEALG         STANDARD     [  0]   ***   
       ANH_DERIVAT          IANDER         SECOND       [  1]   ***   
       SPINROTATIO          ISRCON         OFF          [  0]   ***   
       CIS_CONV             ICISTL              5               ***   
       ANH_STEPSIZ          ICUBST             50000          x 10-6  
       SPIN_FLIP            ISPFLP         OFF          [  0]   ***   
       GRID                 IGRID          OFF          [  0]   ***   
  
       DBOC                 IDBOC          OFF          [  0]   ***   
       EOMFOLLOW            IEOMSR         ENERGY       [  0]   ***   
       T3_EXTRAPOL          IT3EXT         OFF          [  0]   ***   
       ESTATE_LOCK          IESLOC         OFF          [  0]   ***   
       UNOS                 IUNOS          OFF          [  0]   ***   
       FREQ_ALGORI          IVIALG         STANDARD     [  0]   ***   
       RELATIVIST           IRELAT         OFF          [  0]   ***   
       FROZEN_CORE          IFROCO         ON           [  1]   ***   
       EXCITATION           IEXCIT              0               ***   
       INPUT_MRCC           IMRCC          ON           [  1]   ***   
  
       GIAO                 IGIAO          OFF          [  1]   ***   
       EOM_NSING            IEOMSI          10D-  0             ***   
       EOM_NTRIP            IEOMTR          10D-  0             ***   
       EOM_NSTATES          IMRCCD         DAVIDSON     [  0]   ***   
       DIAG_MRCC            IEOMST          10D-  0             ***   
       NEWNORM              INEWNO         OFF          [  0]   ***   
       TESTSUITE            ITESTS         OFF          [  0]   ***   
       BUFFERSIZE           IBUFFS            600               ***   
       SPINORBIT            ISOCAL         OFF          [  0]   ***   
       DCT                  IDCT           OFF          [  0]   ***   
  
       PARALLEL             IPARAL         ON           [  1]   ***   
       PARA_PRINT           IPPRIN              0               ***   
       COMM_SIZE            IPSIZE            ***               ***   
       PARA_INT             IPINTS         ON           [  1]   ***   
       RAMAN_INT            IRAMIN         OFF          [  0]   ***   
       RAMAN_ORB            IRAMRE         UNRELAXED    [  0]   ***   
       BREIT                IBREIT         OFF          [  0]   ***   
       MEM_UNIT             IMEMU          GB           [  3]   ***   
       SPIN_ORBIT           ISPORB         OFF          [  0]   ***   
       GENBAS_4             IGNBS4              0               ***   
  
       SPIN_SCAL            ISCSMP         OFF          [  0]   ***   
       GRID_ALGO            IGALGO         SERIAL       [  0]   ***   
       VIBPHASE             ISETPH         STANDARD     [  0]   ***   
       SEQUENCE             ISEQUE         OFF          [  0]   ***   
       HESS_TYPE            IHESTP         SCF          [  0]   ***   
       CONTINUUM            ICONTU         NONE         [  0]   ***   
       SCF_NOSTOP           ISCFST         OFF          [  0]   ***   
       CONSTANT             ICONST         OLD          [  1]   ***   
  
       EOM_MRCC             IMRCCE         OLD          [  0]   ***   
       EOM_ORDER            IEXORD         ENERGY       [  0]   ***   
       GIMIC                IGIMIC         OFF          [  0]   ***   
    -------------------------------------------------------------------
   3 entries found in Z-matrix 
   Job Title : Water                                                                           
   There are  2 unique internal coordinates.
   Of these,  2 will be optimized.
   User supplied Z-matrix: 
--------------------------------------------------------------------------------
       SYMBOL    BOND      LENGTH    ANGLE     ANGLE     DIHED     ANGLE
                  TO      (ANGST)    WRT      (DEG)      WRT      (DEG)
--------------------------------------------------------------------------------
        O    
        H          1         r1   
        H          1         r1         2        a1   
                  *Initial values for internal coordinates* 
                      Name             Value
                        r1              0.8500000000
                        a1            104.5000000000
--------------------------------------------------------------------------------
  1  O          8    15.99491
  2  H          1     1.00783
  3  H          1     1.00783
   Rotational constants (in cm-1): 
         12.0824204957            18.5153336088            34.7758538542
   Rotational constants (in MHz): 
     362221.9046443810        555075.8150904067       1042554.0166599333
********************************************************************************
   The full molecular point group is C2v .
   The largest Abelian subgroup of the full molecular point group is C2v .
   The computational point group is C2v .
********************************************************************************
--------------------------------------------------------------------------------
   Analysis of internal coordinates specified by Z-matrix 
--------------------------------------------------------------------------------
   *The nuclear repulsion energy is   10.35466 a.u.
   *There are   2 degrees of freedom within the tot. symm. molecular subspace.
   *Z-matrix requests optimization of   2 coordinates.
   *The optimization is unconstrained and your Z-matrix is great.
--------------------------------------------------------------------------------
 ----------------------------------------------------------------
 Z-matrix   Atomic            Coordinates (in bohr)
  Symbol    Number           X              Y              Z
 ----------------------------------------------------------------
     O         8         0.00000000     0.00000000     0.11005538
     H         1         0.00000000    -1.27005900    -0.87332937
     H         1         0.00000000     1.27005900    -0.87332937
 ----------------------------------------------------------------
   Interatomic distance matrix (Angstroms) 
 
                 O             H             H    
                [ 1]        [ 2]        [ 3]
  O    [ 1]     0.00000
  H    [ 2]     0.85000     0.00000
  H    [ 3]     0.85000     1.34417     0.00000
   Rotational constants (in cm-1): 
         12.0824204957            34.7758538542            18.5153336088
   Rotational constants (in MHz): 
     362221.9046443811       1042554.0166599341        555075.8150904070
  There is   1 frozen-core orbital.
  There are   13 basis functions.
                0.44 seconds walltime passed
                0.44 seconds walltime passed
 --executable xjoda finished with status            0
 --invoking executable xvmol
 Parallel version of molecule started on node            0 :
 
    -------------------------------------------------------------------
                    Input from MOL file
    -------------------------------------------------------------------
 INTGRL        1    0    1    0    0    0    0    0    0                        
          *** CFOUR Program System (Release V0.1) ***                           
 Water                                                                          
     2    2 X  Y       0.10E-08              0    0                             
    9999.00      3.00                                                           
           8.00000000    1    2    1    1                                       
 O #1   0.000000000000000   0.000000000000000   0.110055379437778               
     6    3                                                                     
    322.037000000000       5.923940000000000E-002  0.000000000000000E+000       
   0.000000000000000E+000                                                       
    48.4308000000000       0.351500000000000       0.000000000000000E+000       
   0.000000000000000E+000                                                       
    10.4206000000000       0.707658000000000       0.000000000000000E+000       
   0.000000000000000E+000                                                       
    7.40294000000000       0.000000000000000E+000 -0.404453000000000            
   0.000000000000000E+000                                                       
    1.57620000000000       0.000000000000000E+000   1.22156000000000            
   0.000000000000000E+000                                                       
   0.373684000000000       0.000000000000000E+000  0.000000000000000E+000       
    1.00000000000000                                                            
     3    2                                                                     
    7.40294000000000       0.244586000000000       0.000000000000000E+000       
    1.57620000000000       0.853955000000000       0.000000000000000E+000       
   0.373684000000000       0.000000000000000E+000   1.00000000000000            
           1.00000000    1    1    1                                            
 H #2   0.000000000000000  -1.270058998551273  -0.873329366480520               
     3    2                                                                     
    5.44717800000000       0.156285000000000       0.000000000000000E+000       
   0.824547200000000       0.904691000000000       0.000000000000000E+000       
   0.183191600000000       0.000000000000000E+000   1.00000000000000            
 FINISH                                                                         
 
    -------------------------------------------------------------------
 
 One- and two-electron integrals over symmetry-adapted AOs are calculated.

  Spherical harmonics are used.
  
  Integrals less than  0.10E-13 are neglected.

  Nuclear repulsion energy :   10.3546632045 a.u.
  required memory for a1 array                5002674  words 
  required memory for a2 array                2009205  words 
 basis number:   8     9
 basis number:   1     2
  @GETMEM-I,   Allocated      68 MB of main memory.
  @MOLECU-I, One electron integrals required         0.00000 seconds.
  @TWOEL-I,         93 integrals of symmetry type  I I I I
  @TWOEL-I,        122 integrals of symmetry type  I J I J
  @TWOEL-I,        111 integrals of symmetry type  I I J J
  @TWOEL-I, Total number of 2-e integrals        326.
  @MOLECU-I, Two electron integrals required         0.01000 seconds.
  @CHECKOUT-I, Total execution time :       0.0100 seconds.
                0.00 seconds walltime passed
 --executable xvmol finished with status            0
 --invoking executable xvmol2ja
  @GETMEM-I,   Allocated    6675 MB of main memory.
  @CHECKOUT-I, Total execution time :       0.0100 seconds.
                0.00 seconds walltime passed
 --executable xvmol2ja finished with status            0
 --invoking executable xvscf
 NSOSCF                     0
  There are   13 functions in the AO basis.

  There are 4 irreducible representations.

       Irrep        # of functions
         1                  7
         2                  2
         3                  4
         4                  0


  Parameters for SCF calculation: 
        SCF reference function:  RHF  
  Maximum number of iterations:  150
     Full symmetry point group: C2v 
     Computational point group: C2v 
        Initial density matrix: MOREAD                 
     SCF convergence tolerance: 10**(- 7)
  DIIS convergence acceleration:  ON
          Latest start for DIIS:   8
                     DIIS order:   6

  Memory information:      46988 words required.
  Fock matrices are constructed from AO integral file.
  @GETMEM-I,   Allocated       0 MB of main memory.
  Initialization and symmetry analysis required      0.020 seconds.

  @INITGES-I, Occupancies from core Hamiltonian:

          Alpha population by irrep:   3    1    1    0
           Beta population by irrep:   3    1    1    0


 total no. of electrons in initial guess :  0.000000000000000E+000
  --------------------------------------------------------------------
  Iteration         Total Energy            Largest Density Difference
  --------------------------------------------------------------------
       0            10.354663204546069              0.0000000000D+00
   current occupation vector 
     3  1  1  0
     3  1  1  0
       1           -66.385392194339090              0.2098438642D+01
   current occupation vector 
     3  1  1  0
     3  1  1  0
       2           -70.242103430545399              0.4906592994D+01
   current occupation vector 
     3  0  2  0
     3  0  2  0
       3           -73.374008665258245              0.4656402650D+01
   current occupation vector 
     3  1  1  0
     3  1  1  0
       4           -75.023126487935485              0.9910690843D+00
   current occupation vector 
     3  1  1  0
     3  1  1  0
       5           -75.425625575709574              0.6205866224D+00
   current occupation vector 
     3  1  1  0
     3  1  1  0
       6           -75.523219680540350              0.2483897335D+00
   current occupation vector 
     3  1  1  0
     3  1  1  0
       7           -75.544358152647547              0.1199639250D+00
   current occupation vector 
     3  1  1  0
     3  1  1  0
       8           -75.548950903902465              0.5559932601D-01
   current occupation vector 
     3  1  1  0
     3  1  1  0
       9           -75.550204271433870              0.1733553837D-01
   current occupation vector 
     3  1  1  0
     3  1  1  0
      10           -75.550204333596000              0.3465207246D-03
   current occupation vector 
     3  1  1  0
     3  1  1  0
      11           -75.550204334810303              0.1873195774D-04
   current occupation vector 
     3  1  1  0
     3  1  1  0
      12           -75.550204334823619              0.2756428988D-05
   current occupation vector 
     3  1  1  0
     3  1  1  0
      13           -75.550204334823803              0.3992864659D-06
   current occupation vector 
     3  1  1  0
     3  1  1  0

  SCF has converged.

 save density matrix on hard disk
 total electron number:   10.0000000000000     
     E(SCF)=       -75.550204334823789              0.3403518367D-07

  Eigenvector printing suppressed.

 @PUTMOS-I, Writing converged MOs to NEWMOS. 
 @PUTMOS-I, Symmetry   1 Full   1 Partial   3
 @PUTMOS-I, Symmetry   2 Full   0 Partial   2
 @PUTMOS-I, Symmetry   3 Full   1 Partial   0
 @PUTMOS-I, Symmetry   4 Full   0 Partial   0


 
  ORBITAL EIGENVALUES (ALPHA)  (1H = 27.2113838 eV)

       MO #        E(hartree)               E(eV)           FULLSYM    COMPSYM
       ----   --------------------   --------------------   -------   ---------
    1     1         -20.4049488669        -555.2468954348      A1        A1 (1)
    2     2          -1.3922776577         -37.8858017273      A1        A1 (1)
    3    10          -0.7496295977         -20.3984587048      B2        B2 (3)
    4     3          -0.5530044646         -15.0480167407      A1        A1 (1)
    5     8          -0.4866320630         -13.2419318450      B1        B1 (2)
  +++++++++++++++++++++++++++++++++++++++++++++++++++++++++++++++++++++++++++++
    6     4           0.2939482705           7.9987392115      A1        A1 (1)
    7    11           0.3949736500          10.7477795892      B2        B2 (3)
    8    12           1.2582517801          34.2387721310      B2        B2 (3)
    9     5           1.4850096333          40.4091671076      A1        A1 (1)
   10     9           1.7829243238          48.5158380956      B1        B1 (2)
   11     6           1.8295157637          49.7836556493      A1        A1 (1)
   12    13           2.0217441314          55.0144555433      B2        B2 (3)
   13     7           3.1540290350          85.8254946486      A1        A1 (1)


  VSCF finished.

  @CHECKOUT-I, Total execution time :       0.0200 seconds.
                0.06 seconds walltime passed
 --executable xvscf finished with status            0
 --invoking executable xvtran
  @GETMEM-I,   Allocated    6675 MB of main memory.
  Partial RHF integral transformation
  Frozen-core orbitals requested within analytic derivative calculation
 ! shown number of AO integrals not right ! (in parallel version)
  Transformation of IIII integrals :
  1 pass through the AO integral file was required.
          93 AO integrals were read.
         390 MO integrals were written to HF2.
  Transformation of IIJJ integrals :
  1 pass through the AO integral file was required.
         111 AO integrals were read.
         318 MO integrals were written to HF2.
  Transformation of IJIJ integrals :
  1 pass through the AO integral file was required.
         122 AO integrals were read.
         453 MO integrals were written to HF2.
  Transformation of IJKL integrals :
  1 pass through the AO integral file was required.
           0 AO integrals were read.
           0 MO integrals were written to HF2.
  Summary of active molecular orbitals: 
------------------------------------------------------------------------
 
  Index      Eigenvalue    Symmetry    Index      Eigenvalue    Symmetry
------------------------------------------------------------------------
     1       -20.4049489        1         8         1.8295158        1
     2        -1.3922777        1         9         3.1540290        1
     3        -0.5530045        1        10         1.7829243        2
     4        -0.4866321        2        11         0.3949737        3
     5        -0.7496296        3        12         1.2582518        3
     6         0.2939483        1        13         2.0217441        3
     7         1.4850096        1
------------------------------------------------------------------------
  @CHECKOUT-I, Total execution time :       0.0300 seconds.
                0.12 seconds walltime passed
 --executable xvtran finished with status            0
 --invoking executable xintprc
  @GETMEM-I,   Allocated    6675 MB of main memory.
  Processing integrals for CCSD calculation.
  @GMOIAA-I, Processing MO integrals for spin case AA.
  @GMOIAA-I, Generation of integral list completed.
                      TYPE                NUMBER
                      ----               --------
                      PPPP                     0
                      PPPH                   468
                      PPHH                   265
                      PHPH                   187
                      PHHH                   192
                      HHHH                    49

                     TOTAL                  1161

  @FORMT2-I, Second-order MP correlation energies:
              ----------------------------------------------
              E(SCF)                =  -75.550204334824 a.u.
              E2(AA)                =   -0.012898781568 a.u.
              E2(AB)                =   -0.087702076376 a.u.
              E2(TOT)               =   -0.113499639512 a.u.
              Total MP2 energy      =  -75.663703974335 a.u.
              ----------------------------------------------
   Largest T2 amplitudes for spin case AB:
       _       _                 _       _                 _       _
   i   j   a   b             i   j   a   b             i   j   a   b
-----------------------------------------------------------------------------
[  4   4  10  10]-0.03905 [  3   3   8   8]-0.03331 [  5   5  11  11]-0.03074
[  4   3  10   8]-0.02713 [  3   4   8  10]-0.02713 [  5   5  12  12]-0.02360
[  5   4  13  10]-0.02128 [  4   5  10  13]-0.02128 [  5   5   7   7]-0.02090
[  5   4  11  10]-0.02088 [  4   5  10  11]-0.02088 [  5   5  13  13]-0.02084
[  5   3  13   8]-0.01896 [  3   5   8  13]-0.01896 [  5   3  11   8]-0.01838
-----------------------------------------------------------------------------
   Norm of T2AB vector (      490 symmetry allowed elements):  0.1415376350.
-----------------------------------------------------------------------------
  @CHECKOUT-I, Total execution time :       0.0100 seconds.
                0.00 seconds walltime passed
 --executable xintprc finished with status            0
 --invoking executable xecc
  @GETMEM-I,   Allocated    6675 MB of main memory.
 CCSD energy will be calculated.
 AO based algorithm is used. 
   Frozen core orbitals in analytic derivative calculation
 Largest T2 amplitudes for spin case AB:
        _       _                 _       _                 _       _
    i   j   a   b             i   j   a   b             i   j   a   b
 -----------------------------------------------------------------------------
 [  4   4  10  10]-0.03905 [  3   3   8   8]-0.03331 [  5   5  11  11]-0.03074
 [  4   3  10   8]-0.02713 [  3   4   8  10]-0.02713 [  5   5  12  12]-0.02360
 [  5   4  13  10]-0.02128 [  4   5  10  13]-0.02128 [  5   5   7   7]-0.02090
 [  5   4  11  10]-0.02088 [  4   5  10  11]-0.02088 [  5   5  13  13]-0.02084
 [  5   3  13   8]-0.01896 [  3   5   8  13]-0.01896 [  5   3  11   8]-0.01838
 -----------------------------------------------------------------------------
 Norm of T2AB vector (      490 symmetry allowed elements):  0.1415376350.
 -----------------------------------------------------------------------------
 The total correlation energy is -0.113499639512 a.u.
 Resorts of amplitudes and integrals required   0.0 seconds.
 Starting iterative solution of the CC equations.
 The DIIS procedure is used to accelerate convergence.
 5 expansion vectors are used in the DIIS extrapolation.
 Convergence criterium is 10**(-7).
 Maximum number of iterations is  50.
 Iteration Nr. 1
 Generation of Intermediates required        0.0 seconds.
 Transformation of t(ab,ij) amplitudes required    0.0 seconds.
 Contraction of t(mu nu,ij) with AO integrals required    0.0 seconds.
 Backtransformation of t(mu nu,ij) increments required    0.0 seconds.
 Construction of Hbar(ab,ij) and Hbar(a,i) required   0.0 seconds.
   Frozen core orbitals in analytic derivative calculation
 Amplitude changes are:
 -------------------------------------------------------------------
              Spin      RMS          Max.      Max. change for
  Amplitude   Case     Change       Change       i    j    a    b
 -------------------------------------------------------------------
     T1        AA    0.0005996443 0.0062624809    5        13
     T2        AB    0.0000379413-0.0042024442    5    5   12   12
 -------------------------------------------------------------------
 The total correlation energy is -0.117322016927 a.u.
 Convergence information after     1 iterations: 
 Largest element of residual vector :  0.62624809E-02.
 Largest element of DIIS residual   :  0.62624809E-02.
 CPU: This iteration required        0.0 seconds.
 Iteration Nr. 2
 Generation of Intermediates required        0.0 seconds.
 Transformation of t(ab,ij) amplitudes required    0.0 seconds.
 Contraction of t(mu nu,ij) with AO integrals required    0.0 seconds.
 Backtransformation of t(mu nu,ij) increments required    0.0 seconds.
 Construction of Hbar(ab,ij) and Hbar(a,i) required   0.0 seconds.
   Frozen core orbitals in analytic derivative calculation
 Amplitude changes are:
 -------------------------------------------------------------------
              Spin      RMS          Max.      Max. change for
  Amplitude   Case     Change       Change       i    j    a    b
 -------------------------------------------------------------------
     T1        AA    0.0001488693-0.0013664367    5        11
     T2        AB    0.0000135458-0.0018373542    5    5   11   11
 -------------------------------------------------------------------
 The total correlation energy is -0.119326525730 a.u.
 Convergence information after     2 iterations: 
 Largest element of residual vector : -0.18373542E-02.
 Largest element of DIIS residual   : -0.16148873E-02.
 CPU: This iteration required        0.0 seconds.
 Iteration Nr. 3
 Generation of Intermediates required        0.0 seconds.
 Transformation of t(ab,ij) amplitudes required    0.0 seconds.
 Contraction of t(mu nu,ij) with AO integrals required    0.0 seconds.
 Backtransformation of t(mu nu,ij) increments required    0.0 seconds.
 Construction of Hbar(ab,ij) and Hbar(a,i) required   0.0 seconds.
   Frozen core orbitals in analytic derivative calculation
 Amplitude changes are:
 -------------------------------------------------------------------
              Spin      RMS          Max.      Max. change for
  Amplitude   Case     Change       Change       i    j    a    b
 -------------------------------------------------------------------
     T1        AA    0.0000323018 0.0004322349    3         6
     T2        AB    0.0000019974-0.0002812352    5    5   11   11
 -------------------------------------------------------------------
 The total correlation energy is -0.120072399652 a.u.
 Convergence information after     3 iterations: 
 Largest element of residual vector :  0.43223492E-03.
 Largest element of DIIS residual   :  0.33803997E-03.
 CPU: This iteration required        0.0 seconds.
 Iteration Nr. 4
 Generation of Intermediates required        0.0 seconds.
 Transformation of t(ab,ij) amplitudes required    0.0 seconds.
 Contraction of t(mu nu,ij) with AO integrals required    0.0 seconds.
 Backtransformation of t(mu nu,ij) increments required    0.0 seconds.
 Construction of Hbar(ab,ij) and Hbar(a,i) required   0.0 seconds.
   Frozen core orbitals in analytic derivative calculation
 Amplitude changes are:
 -------------------------------------------------------------------
              Spin      RMS          Max.      Max. change for
  Amplitude   Case     Change       Change       i    j    a    b
 -------------------------------------------------------------------
     T1        AA    0.0000106329 0.0001668398    3         6
     T2        AB    0.0000004726-0.0000746225    5    5   11   11
 -------------------------------------------------------------------
 The total correlation energy is -0.120166939044 a.u.
 Convergence information after     4 iterations: 
 Largest element of residual vector :  0.16683977E-03.
 Largest element of DIIS residual   :  0.10039324E-03.
 CPU: This iteration required        0.0 seconds.
 Iteration Nr. 5
 Generation of Intermediates required        0.0 seconds.
 Transformation of t(ab,ij) amplitudes required    0.0 seconds.
 Contraction of t(mu nu,ij) with AO integrals required    0.0 seconds.
 Backtransformation of t(mu nu,ij) increments required    0.0 seconds.
 Construction of Hbar(ab,ij) and Hbar(a,i) required   0.0 seconds.
   Frozen core orbitals in analytic derivative calculation
 Amplitude changes are:
 -------------------------------------------------------------------
              Spin      RMS          Max.      Max. change for
  Amplitude   Case     Change       Change       i    j    a    b
 -------------------------------------------------------------------
     T1        AA    0.0000038344 0.0000591674    3         6
     T2        AB    0.0000000857 0.0000152911    5    5    6    6
 -------------------------------------------------------------------
 The total correlation energy is -0.120174015901 a.u.
 Convergence information after     5 iterations: 
 Largest element of residual vector :  0.59167375E-04.
 Largest element of DIIS residual   :  0.27290216E-04.
 Largest T1 amplitudes for spin case AA:
    i       a                 i       a                 i       a    
 -----------------------------------------------------------------------------
 [  5      13    ] 0.00728 [  5      11    ]-0.00627 [  3       6    ] 0.00554
 [  2       6    ]-0.00357 [  3       8    ] 0.00305 [  2       8    ]-0.00302
 [  2       9    ] 0.00238 [  3       9    ]-0.00147 [  5      12    ]-0.00124
 [  4      10    ] 0.00104 [  3       7    ] 0.00091 [  2       7    ] 0.00004
 [  1       6    ] 0.00000 [  1       5    ] 0.00000 [  1       5    ] 0.00000
 -----------------------------------------------------------------------------
 Norm of T1AA vector (       16 symmetry allowed elements):  0.0128636733.
 -----------------------------------------------------------------------------
 Largest T2 amplitudes for spin case AB:
        _       _                 _       _                 _       _
    i   j   a   b             i   j   a   b             i   j   a   b
 -----------------------------------------------------------------------------
 [  4   4  10  10]-0.04346 [  3   3   8   8]-0.03697 [  5   5  11  11]-0.03621
 [  5   5  12  12]-0.02914 [  4   3  10   8]-0.02755 [  3   4   8  10]-0.02755
 [  5   5   7   7]-0.02454 [  5   5  13  13]-0.02150 [  5   4  13  10]-0.02139
 [  4   5  10  13]-0.02139 [  5   4  11  10]-0.02048 [  4   5  10  11]-0.02048
 [  5   5  13  11]-0.01926 [  5   5  11  13]-0.01926 [  5   3  13   8]-0.01876
 -----------------------------------------------------------------------------
 Norm of T2AB vector (      490 symmetry allowed elements):  0.1613138401.
 -----------------------------------------------------------------------------
 CPU: This iteration required        0.0 seconds.
 Iteration Nr. 6
 Generation of Intermediates required        0.0 seconds.
 Transformation of t(ab,ij) amplitudes required    0.0 seconds.
 Contraction of t(mu nu,ij) with AO integrals required    0.0 seconds.
 Backtransformation of t(mu nu,ij) increments required    0.0 seconds.
 Construction of Hbar(ab,ij) and Hbar(a,i) required   0.0 seconds.
   Frozen core orbitals in analytic derivative calculation
 Amplitude changes are:
 -------------------------------------------------------------------
              Spin      RMS          Max.      Max. change for
  Amplitude   Case     Change       Change       i    j    a    b
 -------------------------------------------------------------------
     T1        AA    0.0000008064 0.0000125748    3         6
     T2        AB    0.0000000206-0.0000033198    3    3    6    6
 -------------------------------------------------------------------
 The total correlation energy is -0.120173559673 a.u.
 Convergence information after     6 iterations: 
 Largest element of residual vector :  0.12574779E-04.
 Largest element of DIIS residual   :  0.42615918E-05.
 CPU: This iteration required        0.0 seconds.
 Iteration Nr. 7
 Generation of Intermediates required        0.0 seconds.
 Transformation of t(ab,ij) amplitudes required    0.0 seconds.
 Contraction of t(mu nu,ij) with AO integrals required    0.0 seconds.
 Backtransformation of t(mu nu,ij) increments required    0.0 seconds.
 Construction of Hbar(ab,ij) and Hbar(a,i) required   0.0 seconds.
   Frozen core orbitals in analytic derivative calculation
 Amplitude changes are:
 -------------------------------------------------------------------
              Spin      RMS          Max.      Max. change for
  Amplitude   Case     Change       Change       i    j    a    b
 -------------------------------------------------------------------
     T1        AA    0.0000001815 0.0000028044    3         6
     T2        AB    0.0000000054 0.0000011744    5    5   11   11
 -------------------------------------------------------------------
 The total correlation energy is -0.120173407859 a.u.
 Convergence information after     7 iterations: 
 Largest element of residual vector :  0.28043704E-05.
 Largest element of DIIS residual   :  0.86365599E-06.
 CPU: This iteration required        0.0 seconds.
 Iteration Nr. 8
 Generation of Intermediates required        0.0 seconds.
 Transformation of t(ab,ij) amplitudes required    0.0 seconds.
 Contraction of t(mu nu,ij) with AO integrals required    0.0 seconds.
 Backtransformation of t(mu nu,ij) increments required    0.0 seconds.
 Construction of Hbar(ab,ij) and Hbar(a,i) required   0.0 seconds.
   Frozen core orbitals in analytic derivative calculation
 Amplitude changes are:
 -------------------------------------------------------------------
              Spin      RMS          Max.      Max. change for
  Amplitude   Case     Change       Change       i    j    a    b
 -------------------------------------------------------------------
     T1        AA    0.0000000169 0.0000001996    3         6
     T2        AB    0.0000000014-0.0000002509    5    5    6    6
 -------------------------------------------------------------------
 The total correlation energy is -0.120173429543 a.u.
 Convergence information after     8 iterations: 
 Largest element of residual vector : -0.25087715E-06.
 Largest element of DIIS residual   : -0.15891333E-06.
 CPU: This iteration required        0.0 seconds.
 Iteration Nr. 9
 Generation of Intermediates required        0.0 seconds.
 Transformation of t(ab,ij) amplitudes required    0.0 seconds.
 Contraction of t(mu nu,ij) with AO integrals required    0.0 seconds.
 Backtransformation of t(mu nu,ij) increments required    0.0 seconds.
 Construction of Hbar(ab,ij) and Hbar(a,i) required   0.0 seconds.
   Frozen core orbitals in analytic derivative calculation
 Amplitude changes are:
 -------------------------------------------------------------------
              Spin      RMS          Max.      Max. change for
  Amplitude   Case     Change       Change       i    j    a    b
 -------------------------------------------------------------------
     T1        AA    0.0000000039 0.0000000507    3         6
     T2        AB    0.0000000004 0.0000000590    3    3    6    6
 -------------------------------------------------------------------
 The total correlation energy is -0.120173411533 a.u.
 Convergence information after     9 iterations: 
 Largest element of residual vector :  0.58987490E-07.
 Largest element of DIIS residual   :  0.46357632E-07.
 Amplitude equations converged in     9 iterations.
 The total correlation energy is -0.120173405518 a.u.
 Summary of iterative solution of CC equations 
 -----------------------------------------------------------
                 Correlation           Total
  Iteration        Energy              Energy
 -----------------------------------------------------------
      0     -0.1134996395115310   -75.663703974335   DIIS 
      1     -0.1173220169267005   -75.667526351750   DIIS 
      2     -0.1193265257295991   -75.669530860553   DIIS 
      3     -0.1200723996524462   -75.670276734476   DIIS 
      4     -0.1201669390444184   -75.670371273868   DIIS 
      5     -0.1201740159009418   -75.670378350725   DIIS 
      6     -0.1201735596730251   -75.670377894497   DIIS 
      7     -0.1201734078586850   -75.670377742682   DIIS 
      8     -0.1201734295434766   -75.670377764367   DIIS 
      9     -0.1201734055183314   -75.670377740342   DIIS 
 -----------------------------------------------------------
 A miracle come to pass. The CC iterations have converged.
 
  HF-SCF energy              :     -75.550204334824
  CCSD correlation energy    :      -0.120173405518
  Total CCSD energy          :     -75.670377740342
 
  @CHECKOUT-I, Total execution time :       0.0400 seconds.
                0.12 seconds walltime passed
 --executable xecc finished with status            0
 --invoking executable xlcc
  @GETMEM-I,   Allocated    6675 MB of main memory.
 Lambda equations are solved for CCSD
 AO based algorithm is used. 
 The total correlation energy is -0.120183667553 a.u.
 Starting iterative solution of the Lambda equations.
 The DIIS procedure is used to accelerate convergence.
 5 expansion vectors are used in the DIIS extrapolation.
 Convergence criterium is 10**(-7).
 Maximum number of iterations is  50.
   Frozen core orbitals in analytic derivative calculation
 The total correlation energy is -0.120214074439 a.u.
 Convergence information after     1 iterations: 
 Largest element of residual vector : -0.14723864E-02.
 Largest element of DIIS residual   : -0.14723864E-02.
   Frozen core orbitals in analytic derivative calculation
 The total correlation energy is -0.120063235287 a.u.
 Convergence information after     2 iterations: 
 Largest element of residual vector :  0.22884138E-03.
 Largest element of DIIS residual   :  0.22666624E-03.
   Frozen core orbitals in analytic derivative calculation
 The total correlation energy is -0.120044488594 a.u.
 Convergence information after     3 iterations: 
 Largest element of residual vector : -0.88639076E-04.
 Largest element of DIIS residual   : -0.45720321E-04.
   Frozen core orbitals in analytic derivative calculation
 The total correlation energy is -0.120034296267 a.u.
 Convergence information after     4 iterations: 
 Largest element of residual vector : -0.30299299E-04.
 Largest element of DIIS residual   : -0.16889770E-04.
   Frozen core orbitals in analytic derivative calculation
 The total correlation energy is -0.120033274221 a.u.
 Convergence information after     5 iterations: 
 Largest element of residual vector : -0.74383369E-05.
 Largest element of DIIS residual   : -0.23217898E-05.
   Frozen core orbitals in analytic derivative calculation
 The total correlation energy is -0.120033382411 a.u.
 Convergence information after     6 iterations: 
 Largest element of residual vector : -0.11977154E-05.
 Largest element of DIIS residual   : -0.38176838E-06.
   Frozen core orbitals in analytic derivative calculation
 The total correlation energy is -0.120033417476 a.u.
 Convergence information after     7 iterations: 
 Largest element of residual vector : -0.92928604E-07.
 Largest element of DIIS residual   :  0.66666292E-07.
 Amplitude equations converged in     7 iterations.
 The total correlation energy is -0.120033418126 a.u.
 Summary of iterative solution of CC equations 
 -----------------------------------------------------------
                 Correlation           Total
  Iteration        Energy              Energy
 -----------------------------------------------------------
      0     -0.1201836675528909   -75.670388002377   DIIS 
      1     -0.1202140744386767   -75.670418409262   DIIS 
      2     -0.1200632352866319   -75.670267570110   DIIS 
      3     -0.1200444885943264   -75.670248823418   DIIS 
      4     -0.1200342962666727   -75.670238631090   DIIS 
      5     -0.1200332742209180   -75.670237609045   DIIS 
      6     -0.1200333824110257   -75.670237717235   DIIS 
      7     -0.1200334181258118   -75.670237752950   DIIS 
 -----------------------------------------------------------
 A miracle come to pass. The CC iterations have converged.
  @CHECKOUT-I, Total execution time :       0.0400 seconds.
                0.06 seconds walltime passed
 --executable xlcc finished with status            0
 --invoking executable xdens
  @GETMEM-I,   Allocated    6675 MB of main memory.
  CCSD density and intermediates are calculated.
  The perturbed orbitals are chosen canonical.
  Direct algorithm used for all contributions involving G(AB,CD).
 rdaoijkl2 libr
  processed                     93  ao basis integrals from 
                     1  buffers.
 rdaoijkl2 libr
  processed                    122  ao basis integrals from 
                     1  buffers.
 rdaoijkl2 libr
  processed                    111  ao basis integrals from 
                     1  buffers.
 rdaoijkl2 libr
  processed                      0  ao basis integrals from 
                     0  buffers.
  W(abef) AB contribution =  0.0197331384 a.u.
 rdaoijkl2 libr
  processed                     93  ao basis integrals from 
                     1  buffers.
 rdaoijkl2 libr
  processed                    122  ao basis integrals from 
                     1  buffers.
 rdaoijkl2 libr
  processed                    111  ao basis integrals from 
                     1  buffers.
 rdaoijkl2 libr
  processed                      0  ao basis integrals from 
                     0  buffers.
  W(abef) AB contribution =  0.0195284207 a.u.
 Para: T
 Para: T
 Para: T
 Para: T
                     1                     1
                     2                     2
                     3                     3
                     4                     4
 Total CPU time :   0.000000000000000E+000
  processed                     93  ao basis integrals from 
                     1  buffers.
 Total CPU time :   0.000000000000000E+000
  processed                    122  ao basis integrals from 
                     1  buffers.
 Total CPU time :   0.000000000000000E+000
  processed                    111  ao basis integrals from 
                     1  buffers.
 Total CPU time :   0.000000000000000E+000
  processed                      0  ao basis integrals from 
                     0  buffers.
  The iterative expansion of D(ai) converged after  14 iterations.
  ----------------------------------------------------------------------
                 Natural orbital occupation numbers
  ----------------------------------------------------------------------
  2.00000  1.99162  1.98722  1.98203  1.97880  0.01815  0.01632  0.01188
  0.00830  0.00285  0.00191  0.00056  0.00036
  Trace of density matrix :  10.0000000000.
  ----------------------------------------------------------------------
  Density calculation successfully completed.
  @CHECKOUT-I, Total execution time :       0.0400 seconds.
                0.12 seconds walltime passed
 --executable xdens finished with status            0
 --invoking executable xanti
  @GETMEM-I,   Allocated    6675 MB of main memory.
 CCSD MO gammas will be sorted to Mulliken order.
  @CHECKOUT-I, Total execution time :       0.0000 seconds.
                0.06 seconds walltime passed
 --executable xanti finished with status            0
 --invoking executable xbcktrn
  @GETMEM-I,   Allocated    6675 MB of main memory.
 CCSD MO gammas will be transformed to the AO basis.
  @CHECKOUT-I, Total execution time :       0.0000 seconds.
                0.00 seconds walltime passed
 --executable xbcktrn finished with status            0
 --invoking executable xvdint
  @GETMEM-I,   Allocated    6675 MB of main memory.
 One- and two-electron integral derivatives are calculated
 for RHF-CC/MBPT gradients and dipole moments.
 Spherical gaussians are used.

                     Kinetic energy integral gradient
                     --------------------------------

                         O #1 z    -0.8654946187
                         H #2 y     1.0824503695
                         H #2 z     0.8654946187


 O #1       0.0000000000            0.0000000000           -0.8654946187
 H #2 1     0.0000000000            0.5412251848            0.4327473093
 H #2 2     0.0000000000           -0.5412251848            0.4327473093



                   Nuclear attraction integral gradient
                   ------------------------------------

                         O #1 z     8.4996354523
                         H #2 y   -10.3413485099
                         H #2 z    -8.4996354523


 O #1       0.0000000000            0.0000000000            8.4996354523
 H #2 1     0.0000000000           -5.1706742550           -4.2498177261
 H #2 2     0.0000000000            5.1706742550           -4.2498177261



                      Reorthonormalization gradient
                      -----------------------------

                         O #1 z    -0.4984175652
                         H #2 y     0.4868882420
                         H #2 z     0.4984175652


 O #1       0.0000000000            0.0000000000           -0.4984175652
 H #2 1     0.0000000000            0.2434441210            0.2492087826
 H #2 2     0.0000000000           -0.2434441210            0.2492087826



                Electronic contributions to dipole moment
                -----------------------------------------

                               au             Debye

                    z     -0.04746275     -0.12063829

  Conversion factor used: 1 a.u. =   2.54174691 Debye 


  Evaluation of 1e integral derivatives required    0.03 seconds.
  Evaluation of 2el integral derivatives

                      Two-electron integral gradient
                      ------------------------------

                         O #1 z    -3.5520316522
                         H #2 y     3.8977145510
                         H #2 z     3.5520316522


 O #1       0.0000000000            0.0000000000           -3.5520316522
 H #2 1     0.0000000000            1.9488572755            1.7760158261
 H #2 2     0.0000000000           -1.9488572755            1.7760158261


  Evaluation of 2e integral derivatives required    0.01 seconds.

                            Molecular gradient
                            ------------------

                         O #1 z    -0.2128642829
                         H #2 y     0.3389963611
                         H #2 z     0.2128642829


 O #1       0.0000000000            0.0000000000           -0.2128642829
 H #2 1     0.0000000000            0.1694981805            0.1064321414
 H #2 2     0.0000000000           -0.1694981805            0.1064321414


  Molecular gradient norm 0.453E+00

                           Total dipole moment
                           -------------------

                               au             Debye

                    z     -0.91367844     -2.32233937

  Conversion factor used: 1 a.u. =   2.54174691 Debye 


  @CHECKOUT-I, Total execution time :       0.0300 seconds.
                0.06 seconds walltime passed
 --executable xvdint finished with status            0
 --invoking executable xjoda
   JODA beginning optimization cycle #  1.
 OriVec is   0.000000000000000E+000  -1.00000000000000     
  0.000000000000000E+000                    -2
   Internal coordinate forces and energy gradients (atomic units): 
           R       dV/dR             R       dV/dR             R       dV/dR
 [r1   ]  1.60627 -0.1991800 [r1   ]  1.60627 -0.1991800 [a1   ]  1.82387 -0.0315068
                     0                     0                     0 ****
   Optimization cycle  1.  Updating structure with Newton-Raphson step.
  @EFOL-I, Current internal coordinate Hessian written to FCMINT.
   There are   2 independent internal coordinates which will be optimized.
   Hessian matrix in totally symmetric symmetry coordinates: 
              r1        a1   
  r1         1.000000  0.000000
  a1         0.000000  0.250000
   The eigenvectors of the Hessian matrix: 
                   1         2
  r1         0.000000  1.000000
  a1         1.000000  0.000000
   The eigenvalues of the Hessian matrix: 
     0.25000    1.00000
   Gradients along Hessian eigenvectors: 
    -0.03151   -0.28168
   There are  0 negative eigenvalues.
   Summary of Optimization Cycle: 
   The maximum unscaled step is:    0.23570.
   Scale factor set to:  1.00000.
   Forces are in hartree/bohr and hartree/radian.
   Parameter values are in Angstroms and degrees.
--------------------------------------------------------------------------
  Parameter     dV/dR           Step          Rold            Rnew
--------------------------------------------------------------------------
    r1     -0.1991800403    0.1054015161    0.8500000000    0.9554015161
    a1     -0.0315068262    7.2208326723  104.5000000000  111.7208326723
--------------------------------------------------------------------------
  Minimum force:  0.031506826 / RMS force:  0.142592722
 Updating structure...
   Rotational constants (in cm-1): 
          9.4971671447            13.3749506164            32.7568938501
   Rotational constants (in MHz): 
     284717.9481226568        400970.9882662054        982027.1099568618
 ----------------------------------------------------------------
 Z-matrix   Atomic            Coordinates (in bohr)
  Symbol    Number           X              Y              Z
 ----------------------------------------------------------------
     O         8        -0.00000000    -0.00000000     0.11339628
     H         1         0.00000000    -1.49431988    -0.89984065
     H         1         0.00000000     1.49431988    -0.89984065
 ----------------------------------------------------------------
   Interatomic distance matrix (Angstroms) 
 
                 O             H             H    
                [ 1]        [ 2]        [ 3]
  O    [ 1]     0.00000
  H    [ 2]     0.95540     0.00000
  H    [ 3]     0.95540     1.58152     0.00000
   Rotational constants (in cm-1): 
          9.4971671447            32.7568938501            13.3749506164
   Rotational constants (in MHz): 
     284717.9481226566        982027.1099568610        400970.9882662049
  There is   1 frozen-core orbital.
  There are   13 basis functions.
                0.06 seconds walltime passed
                0.06 seconds walltime passed
 --executable xjoda finished with status            0
 --invoking executable xvmol
 Parallel version of molecule started on node            0 :
 
    -------------------------------------------------------------------
                    Input from MOL file
    -------------------------------------------------------------------
 INTGRL        1    0    1    0    0    0    0    0    0                        
          *** CFOUR Program System (Release V0.1) ***                           
 Water                                                                          
     2    2 X  Y       0.10E-08              0    0                             
    9999.00      3.00                                                           
           8.00000000    1    2    1    1                                       
 O #1  -0.000000000000000  -0.000000000000000   0.113396283177936               
     6    3                                                                     
    322.037000000000       5.923940000000000E-002  0.000000000000000E+000       
   0.000000000000000E+000                                                       
    48.4308000000000       0.351500000000000       0.000000000000000E+000       
   0.000000000000000E+000                                                       
    10.4206000000000       0.707658000000000       0.000000000000000E+000       
   0.000000000000000E+000                                                       
    7.40294000000000       0.000000000000000E+000 -0.404453000000000            
   0.000000000000000E+000                                                       
    1.57620000000000       0.000000000000000E+000   1.22156000000000            
   0.000000000000000E+000                                                       
   0.373684000000000       0.000000000000000E+000  0.000000000000000E+000       
    1.00000000000000                                                            
     3    2                                                                     
    7.40294000000000       0.244586000000000       0.000000000000000E+000       
    1.57620000000000       0.853955000000000       0.000000000000000E+000       
   0.373684000000000       0.000000000000000E+000   1.00000000000000            
           1.00000000    1    1    1                                            
 H #2   0.000000000000000  -1.494319876051405  -0.899840649815963               
     3    2                                                                     
    5.44717800000000       0.156285000000000       0.000000000000000E+000       
   0.824547200000000       0.904691000000000       0.000000000000000E+000       
   0.183191600000000       0.000000000000000E+000   1.00000000000000            
 FINISH                                                                         
 
    -------------------------------------------------------------------
 
 One- and two-electron integrals over symmetry-adapted AOs are calculated.

  Spherical harmonics are used.
  
  Integrals less than  0.10E-13 are neglected.

  Nuclear repulsion energy :    9.1966687968 a.u.
  required memory for a1 array                5002674  words 
  required memory for a2 array                2009205  words 
 basis number:   8     9
 basis number:   1     2
  @GETMEM-I,   Allocated      68 MB of main memory.
  @MOLECU-I, One electron integrals required         0.01000 seconds.
  @TWOEL-I,         93 integrals of symmetry type  I I I I
  @TWOEL-I,        122 integrals of symmetry type  I J I J
  @TWOEL-I,        111 integrals of symmetry type  I I J J
  @TWOEL-I, Total number of 2-e integrals        326.
  @MOLECU-I, Two electron integrals required         0.00000 seconds.
  @CHECKOUT-I, Total execution time :       0.0100 seconds.
                0.06 seconds walltime passed
 --executable xvmol finished with status            0
 --invoking executable xvmol2ja
  @GETMEM-I,   Allocated    6675 MB of main memory.
  @CHECKOUT-I, Total execution time :       0.0100 seconds.
                0.00 seconds walltime passed
 --executable xvmol2ja finished with status            0
 --invoking executable xvscf
 NSOSCF                     0
  There are   13 functions in the AO basis.

  There are 4 irreducible representations.

       Irrep        # of functions
         1                  7
         2                  2
         3                  4
         4                  0


  Parameters for SCF calculation: 
        SCF reference function:  RHF  
  Maximum number of iterations:  150
     Full symmetry point group: C2v 
     Computational point group: C2v 
        Initial density matrix: MOREAD                 
     SCF convergence tolerance: 10**(- 7)
  DIIS convergence acceleration:  ON
          Latest start for DIIS:   8
                     DIIS order:   6

     Alpha population by irrep:   3    1    1    0
      Beta population by irrep:   3    1    1    0


  Memory information:      46988 words required.
  Fock matrices are constructed from AO integral file.
  @GETMEM-I,   Allocated       0 MB of main memory.
  Initialization and symmetry analysis required      0.030 seconds.

 total no. of electrons in initial guess :  0.000000000000000E+000
  --------------------------------------------------------------------
  Iteration         Total Energy            Largest Density Difference
  --------------------------------------------------------------------
       0           -75.453561174441532              0.0000000000D+00
   current occupation vector 
     3  1  1  0
     3  1  1  0
       1           -75.584760820987100              0.3262111341D-01
   current occupation vector 
     3  1  1  0
     3  1  1  0
       2           -75.585309475008216              0.8758261966D-02
   current occupation vector 
     3  1  1  0
     3  1  1  0
       3           -75.585353507007071              0.4246596023D-02
   current occupation vector 
     3  1  1  0
     3  1  1  0
       4           -75.585360936968598              0.2144021805D-02
   current occupation vector 
     3  1  1  0
     3  1  1  0
       5           -75.585361713168879              0.9601251197D-03
   current occupation vector 
     3  1  1  0
     3  1  1  0
       6           -75.585361736623966              0.1591942560D-03
   current occupation vector 
     3  1  1  0
     3  1  1  0
       7           -75.585361737219017              0.2090899391D-04
   current occupation vector 
     3  1  1  0
     3  1  1  0
       8           -75.585361737221817              0.1834057401D-05
   current occupation vector 
     3  1  1  0
     3  1  1  0
       9           -75.585361737221930              0.3010674832D-06
   current occupation vector 
     3  1  1  0
     3  1  1  0

  SCF has converged.

 save density matrix on hard disk
 total electron number:   10.0000000000000     
     E(SCF)=       -75.585361737221930              0.1548627004D-07

  Eigenvector printing suppressed.

 @PUTMOS-I, Writing converged MOs to NEWMOS. 
 @PUTMOS-I, Symmetry   1 Full   1 Partial   3
 @PUTMOS-I, Symmetry   2 Full   0 Partial   2
 @PUTMOS-I, Symmetry   3 Full   1 Partial   0
 @PUTMOS-I, Symmetry   4 Full   0 Partial   0
 @PUTMOS-I, NEWMOS already exists and will be deleted. 


 
  ORBITAL EIGENVALUES (ALPHA)  (1H = 27.2113838 eV)

       MO #        E(hartree)               E(eV)           FULLSYM    COMPSYM
       ----   --------------------   --------------------   -------   ---------
    1     1         -20.4210190979        -555.6841886607      A1        A1 (1)
    2     2          -1.3216681591         -35.9644195592      A1        A1 (1)
    3    10          -0.6978353559         -18.9890657133      B2        B2 (3)
    4     3          -0.5231869694         -14.2366414326      A1        A1 (1)
    5     8          -0.4752157569         -12.9312783592      B1        B1 (2)
  +++++++++++++++++++++++++++++++++++++++++++++++++++++++++++++++++++++++++++++
    6     4           0.2648314558           7.2064303902      A1        A1 (1)
    7    11           0.3658511343           9.9553156360      B2        B2 (3)
    8    12           1.2378434367          33.6834328637      B2        B2 (3)
    9     5           1.2640203297          34.3957423460      A1        A1 (1)
   10     9           1.7864390823          48.6114795381      B1        B1 (2)
   11     6           1.8535192010          50.4368223947      A1        A1 (1)
   12    13           2.0349885478          55.3748544426      B2        B2 (3)
   13     7           3.1035497339          84.4518830111      A1        A1 (1)


  VSCF finished.

  @CHECKOUT-I, Total execution time :       0.0200 seconds.
                0.00 seconds walltime passed
 --executable xvscf finished with status            0
 --invoking executable xvtran
  @GETMEM-I,   Allocated    6675 MB of main memory.
  Partial RHF integral transformation
  Frozen-core orbitals requested within analytic derivative calculation
 ! shown number of AO integrals not right ! (in parallel version)
  Transformation of IIII integrals :
  1 pass through the AO integral file was required.
          93 AO integrals were read.
         390 MO integrals were written to HF2.
  Transformation of IIJJ integrals :
  1 pass through the AO integral file was required.
         111 AO integrals were read.
         318 MO integrals were written to HF2.
  Transformation of IJIJ integrals :
  1 pass through the AO integral file was required.
         122 AO integrals were read.
         453 MO integrals were written to HF2.
  Transformation of IJKL integrals :
  1 pass through the AO integral file was required.
           0 AO integrals were read.
           0 MO integrals were written to HF2.
  Summary of active molecular orbitals: 
------------------------------------------------------------------------
 
  Index      Eigenvalue    Symmetry    Index      Eigenvalue    Symmetry
------------------------------------------------------------------------
     1       -20.4210191        1         8         1.8535192        1
     2        -1.3216682        1         9         3.1035497        1
     3        -0.5231870        1        10         1.7864391        2
     4        -0.4752158        2        11         0.3658511        3
     5        -0.6978354        3        12         1.2378434        3
     6         0.2648315        1        13         2.0349885        3
     7         1.2640203        1
------------------------------------------------------------------------
  @CHECKOUT-I, Total execution time :       0.0300 seconds.
                0.12 seconds walltime passed
 --executable xvtran finished with status            0
 --invoking executable xintprc
  @GETMEM-I,   Allocated    6675 MB of main memory.
  Processing integrals for CCSD calculation.
  @GMOIAA-I, Processing MO integrals for spin case AA.
  @GMOIAA-I, Generation of integral list completed.
                      TYPE                NUMBER
                      ----               --------
                      PPPP                     0
                      PPPH                   468
                      PPHH                   265
                      PHPH                   187
                      PHHH                   192
                      HHHH                    49

                     TOTAL                  1161

  @FORMT2-I, Second-order MP correlation energies:
              ----------------------------------------------
              E(SCF)                =  -75.585361737222 a.u.
              E2(AA)                =   -0.013601478529 a.u.
              E2(AB)                =   -0.092748227108 a.u.
              E2(TOT)               =   -0.119951184166 a.u.
              Total MP2 energy      =  -75.705312921388 a.u.
              ----------------------------------------------
   Largest T2 amplitudes for spin case AB:
       _       _                 _       _                 _       _
   i   j   a   b             i   j   a   b             i   j   a   b
-----------------------------------------------------------------------------
[  4   4  10  10]-0.03920 [  5   5  11  11]-0.03874 [  3   3   8   8]-0.03242
[  4   3  10   8]-0.02682 [  3   4   8  10]-0.02682 [  5   5  12  12]-0.02369
[  5   5   7   7]-0.02305 [  5   4  11  10]-0.02263 [  4   5  10  11]-0.02263
[  4   5  10  13]-0.02005 [  5   4  13  10]-0.02005 [  5   3  11   6] 0.01963
[  3   5   6  11] 0.01963 [  5   3  11   8]-0.01954 [  3   5   8  11]-0.01954
-----------------------------------------------------------------------------
   Norm of T2AB vector (      490 symmetry allowed elements):  0.1530352965.
-----------------------------------------------------------------------------
  @CHECKOUT-I, Total execution time :       0.0100 seconds.
                0.00 seconds walltime passed
 --executable xintprc finished with status            0
 --invoking executable xecc
  @GETMEM-I,   Allocated    6675 MB of main memory.
 CCSD energy will be calculated.
 AO based algorithm is used. 
   Frozen core orbitals in analytic derivative calculation
 Largest T2 amplitudes for spin case AB:
        _       _                 _       _                 _       _
    i   j   a   b             i   j   a   b             i   j   a   b
 -----------------------------------------------------------------------------
 [  4   4  10  10]-0.03920 [  5   5  11  11]-0.03874 [  3   3   8   8]-0.03242
 [  4   3  10   8]-0.02682 [  3   4   8  10]-0.02682 [  5   5  12  12]-0.02369
 [  5   5   7   7]-0.02305 [  5   4  11  10]-0.02263 [  4   5  10  11]-0.02263
 [  4   5  10  13]-0.02005 [  5   4  13  10]-0.02005 [  5   3  11   6] 0.01963
 [  3   5   6  11] 0.01963 [  5   3  11   8]-0.01954 [  3   5   8  11]-0.01954
 -----------------------------------------------------------------------------
 Norm of T2AB vector (      490 symmetry allowed elements):  0.1530352965.
 -----------------------------------------------------------------------------
 The total correlation energy is -0.119951184166 a.u.
 Resorts of amplitudes and integrals required   0.0 seconds.
 Starting iterative solution of the CC equations.
 The DIIS procedure is used to accelerate convergence.
 5 expansion vectors are used in the DIIS extrapolation.
 Convergence criterium is 10**(-7).
 Maximum number of iterations is  50.
 Iteration Nr. 1
 Generation of Intermediates required        0.0 seconds.
 Transformation of t(ab,ij) amplitudes required    0.0 seconds.
 Contraction of t(mu nu,ij) with AO integrals required    0.0 seconds.
 Backtransformation of t(mu nu,ij) increments required    0.0 seconds.
 Construction of Hbar(ab,ij) and Hbar(a,i) required   0.1 seconds.
   Frozen core orbitals in analytic derivative calculation
 Amplitude changes are:
 -------------------------------------------------------------------
              Spin      RMS          Max.      Max. change for
  Amplitude   Case     Change       Change       i    j    a    b
 -------------------------------------------------------------------
     T1        AA    0.0007478822 0.0081350000    5        13
     T2        AB    0.0000455280-0.0048027918    5    5    6    6
 -------------------------------------------------------------------
 The total correlation energy is -0.123506705415 a.u.
 Convergence information after     1 iterations: 
 Largest element of residual vector :  0.81350000E-02.
 Largest element of DIIS residual   :  0.81350000E-02.
 CPU: This iteration required        0.1 seconds.
 Iteration Nr. 2
 Generation of Intermediates required        0.0 seconds.
 Transformation of t(ab,ij) amplitudes required    0.0 seconds.
 Contraction of t(mu nu,ij) with AO integrals required    0.0 seconds.
 Backtransformation of t(mu nu,ij) increments required    0.0 seconds.
 Construction of Hbar(ab,ij) and Hbar(a,i) required   0.0 seconds.
   Frozen core orbitals in analytic derivative calculation
 Amplitude changes are:
 -------------------------------------------------------------------
              Spin      RMS          Max.      Max. change for
  Amplitude   Case     Change       Change       i    j    a    b
 -------------------------------------------------------------------
     T1        AA    0.0002220873 0.0024373930    3         6
     T2        AB    0.0000182670-0.0025394846    5    5   11   11
 -------------------------------------------------------------------
 The total correlation energy is -0.126099966104 a.u.
 Convergence information after     2 iterations: 
 Largest element of residual vector : -0.25394846E-02.
 Largest element of DIIS residual   : -0.21068146E-02.
 CPU: This iteration required        0.0 seconds.
 Iteration Nr. 3
 Generation of Intermediates required        0.0 seconds.
 Transformation of t(ab,ij) amplitudes required    0.0 seconds.
 Contraction of t(mu nu,ij) with AO integrals required    0.0 seconds.
 Backtransformation of t(mu nu,ij) increments required    0.0 seconds.
 Construction of Hbar(ab,ij) and Hbar(a,i) required   0.0 seconds.
   Frozen core orbitals in analytic derivative calculation
 Amplitude changes are:
 -------------------------------------------------------------------
              Spin      RMS          Max.      Max. change for
  Amplitude   Case     Change       Change       i    j    a    b
 -------------------------------------------------------------------
     T1        AA    0.0000669711 0.0009748606    3         6
     T2        AB    0.0000032086 0.0004585739    5    3    6   11
 -------------------------------------------------------------------
 The total correlation energy is -0.127131584541 a.u.
 Convergence information after     3 iterations: 
 Largest element of residual vector :  0.97486056E-03.
 Largest element of DIIS residual   :  0.73701963E-03.
 CPU: This iteration required        0.0 seconds.
 Iteration Nr. 4
 Generation of Intermediates required        0.0 seconds.
 Transformation of t(ab,ij) amplitudes required    0.0 seconds.
 Contraction of t(mu nu,ij) with AO integrals required    0.0 seconds.
 Backtransformation of t(mu nu,ij) increments required    0.0 seconds.
 Construction of Hbar(ab,ij) and Hbar(a,i) required   0.0 seconds.
   Frozen core orbitals in analytic derivative calculation
 Amplitude changes are:
 -------------------------------------------------------------------
              Spin      RMS          Max.      Max. change for
  Amplitude   Case     Change       Change       i    j    a    b
 -------------------------------------------------------------------
     T1        AA    0.0000278846 0.0004339684    3         6
     T2        AB    0.0000008964-0.0001826354    3    3    6    6
 -------------------------------------------------------------------
 The total correlation energy is -0.127303911116 a.u.
 Convergence information after     4 iterations: 
 Largest element of residual vector :  0.43396840E-03.
 Largest element of DIIS residual   :  0.24322876E-03.
 CPU: This iteration required        0.0 seconds.
 Iteration Nr. 5
 Generation of Intermediates required        0.0 seconds.
 Transformation of t(ab,ij) amplitudes required    0.0 seconds.
 Contraction of t(mu nu,ij) with AO integrals required    0.0 seconds.
 Backtransformation of t(mu nu,ij) increments required    0.0 seconds.
 Construction of Hbar(ab,ij) and Hbar(a,i) required   0.0 seconds.
   Frozen core orbitals in analytic derivative calculation
 Amplitude changes are:
 -------------------------------------------------------------------
              Spin      RMS          Max.      Max. change for
  Amplitude   Case     Change       Change       i    j    a    b
 -------------------------------------------------------------------
     T1        AA    0.0000087966 0.0001326653    3         6
     T2        AB    0.0000001954 0.0000410681    5    5    6    6
 -------------------------------------------------------------------
 The total correlation energy is -0.127317651947 a.u.
 Convergence information after     5 iterations: 
 Largest element of residual vector :  0.13266526E-03.
 Largest element of DIIS residual   :  0.33850281E-04.
 Largest T1 amplitudes for spin case AA:
    i       a                 i       a                 i       a    
[...]
   Frozen core orbitals in analytic derivative calculation
 The total correlation energy is -0.130175155892 a.u.
 Convergence information after     8 iterations: 
 Largest element of residual vector : -0.81613316E-07.
 Largest element of DIIS residual   :  0.39212649E-07.
 Amplitude equations converged in     8 iterations.
 The total correlation energy is -0.130175158725 a.u.
 Summary of iterative solution of CC equations 
 -----------------------------------------------------------
                 Correlation           Total
  Iteration        Energy              Energy
 -----------------------------------------------------------
      0     -0.1308573254979544   -75.715575535159   DIIS 
      1     -0.1304888157777227   -75.715207025439   DIIS 
      2     -0.1302351557366244   -75.714953365398   DIIS 
      3     -0.1302016420984917   -75.714919851760   DIIS 
      4     -0.1301786700508799   -75.714896879712   DIIS 
      5     -0.1301750673425841   -75.714893277004   DIIS 
      6     -0.1301750313558848   -75.714893241017   DIIS 
      7     -0.1301751259659467   -75.714893335627   DIIS 
      8     -0.1301751587254179   -75.714893368387   DIIS 
 -----------------------------------------------------------
 A miracle come to pass. The CC iterations have converged.
  @CHECKOUT-I, Total execution time :       0.0500 seconds.
                0.12 seconds walltime passed
 --executable xlcc finished with status            0
 --invoking executable xdens
  @GETMEM-I,   Allocated    6675 MB of main memory.
  CCSD density and intermediates are calculated.
  The perturbed orbitals are chosen canonical.
  Direct algorithm used for all contributions involving G(AB,CD).
 rdaoijkl2 libr
  processed                     93  ao basis integrals from 
                     1  buffers.
 rdaoijkl2 libr
  processed                    122  ao basis integrals from 
                     1  buffers.
 rdaoijkl2 libr
  processed                    111  ao basis integrals from 
                     1  buffers.
 rdaoijkl2 libr
  processed                      0  ao basis integrals from 
                     0  buffers.
  W(abef) AB contribution =  0.0253717356 a.u.
 rdaoijkl2 libr
  processed                     93  ao basis integrals from 
                     1  buffers.
 rdaoijkl2 libr
  processed                    122  ao basis integrals from 
                     1  buffers.
 rdaoijkl2 libr
  processed                    111  ao basis integrals from 
                     1  buffers.
 rdaoijkl2 libr
  processed                      0  ao basis integrals from 
                     0  buffers.
  W(abef) AB contribution =  0.0248719301 a.u.
 Para: T
 Para: T
 Para: T
                     1                     1
 Para: T
                     2                     2
                     3                     3
                     4                     4
 Total CPU time :   0.000000000000000E+000
  processed                     93  ao basis integrals from 
                     1  buffers.
 Total CPU time :   0.000000000000000E+000
  processed                    122  ao basis integrals from 
                     1  buffers.
 Total CPU time :   0.000000000000000E+000
  processed                    111  ao basis integrals from 
                     1  buffers.
 Total CPU time :   0.000000000000000E+000
  processed                      0  ao basis integrals from 
                     0  buffers.
  The iterative expansion of D(ai) converged after  14 iterations.
  ----------------------------------------------------------------------
                 Natural orbital occupation numbers
  ----------------------------------------------------------------------
  2.00000  1.99150  1.98674  1.97348  1.96933  0.02715  0.02572  0.01225
  0.00795  0.00255  0.00185  0.00080  0.00067
  Trace of density matrix :  10.0000000000.
  ----------------------------------------------------------------------
  Density calculation successfully completed.
  @CHECKOUT-I, Total execution time :       0.0300 seconds.
                0.12 seconds walltime passed
 --executable xdens finished with status            0
 --invoking executable xanti
  @GETMEM-I,   Allocated    6675 MB of main memory.
 CCSD MO gammas will be sorted to Mulliken order.
  @CHECKOUT-I, Total execution time :       0.0100 seconds.
                0.00 seconds walltime passed
 --executable xanti finished with status            0
 --invoking executable xbcktrn
  @GETMEM-I,   Allocated    6675 MB of main memory.
 CCSD MO gammas will be transformed to the AO basis.
  @CHECKOUT-I, Total execution time :       0.0100 seconds.
                0.00 seconds walltime passed
 --executable xbcktrn finished with status            0
 --invoking executable xvdint
  @GETMEM-I,   Allocated    6675 MB of main memory.
 One- and two-electron integral derivatives are calculated
 for RHF-CC/MBPT gradients and dipole moments.
 Spherical gaussians are used.

                     Kinetic energy integral gradient
                     --------------------------------

                         O #1 z    -0.5646525195
                         H #2 y     0.7527459699
                         H #2 z     0.5646525195


 O #1       0.0000000000            0.0000000000           -0.5646525195
 H #2 1     0.0000000000            0.3763729849            0.2823262598
 H #2 2     0.0000000000           -0.3763729849            0.2823262598



                   Nuclear attraction integral gradient
                   ------------------------------------

                         O #1 z     6.3962157312
                         H #2 y    -8.3452657603
                         H #2 z    -6.3962157312


 O #1       0.0000000000            0.0000000000            6.3962157312
 H #2 1     0.0000000000           -4.1726328802           -3.1981078656
 H #2 2     0.0000000000            4.1726328802           -3.1981078656



                      Reorthonormalization gradient
                      -----------------------------

                         O #1 z    -0.3645812195
                         H #2 y     0.3931891815
                         H #2 z     0.3645812195


 O #1       0.0000000000            0.0000000000           -0.3645812195
 H #2 1     0.0000000000            0.1965945908            0.1822906097
 H #2 2     0.0000000000           -0.1965945908            0.1822906097



                Electronic contributions to dipole moment
                -----------------------------------------

                               au             Debye

                    z      0.10807905      0.27470958

  Conversion factor used: 1 a.u. =   2.54174691 Debye 


  Evaluation of 1e integral derivatives required    0.03 seconds.
  Evaluation of 2el integral derivatives

                      Two-electron integral gradient
                      ------------------------------

                         O #1 z    -2.6958149872
                         H #2 y     3.3677094952
                         H #2 z     2.6958149872


 O #1       0.0000000000            0.0000000000           -2.6958149872
 H #2 1     0.0000000000            1.6838547476            1.3479074936
 H #2 2     0.0000000000           -1.6838547476            1.3479074936


  Evaluation of 2e integral derivatives required    0.00 seconds.

                            Molecular gradient
                            ------------------

                         O #1 z     0.0000032207
                         H #2 y    -0.0000009376
                         H #2 z    -0.0000032207


 O #1       0.0000000000            0.0000000000            0.0000032207
 H #2 1     0.0000000000           -0.0000004688           -0.0000016103
 H #2 2     0.0000000000            0.0000004688           -0.0000016103


  Molecular gradient norm 0.465E-05

                           Total dipole moment
                           -------------------

                               au             Debye

                    z     -0.89878401     -2.28448148

  Conversion factor used: 1 a.u. =   2.54174691 Debye 


  @CHECKOUT-I, Total execution time :       0.0200 seconds.
                0.06 seconds walltime passed
 --executable xvdint finished with status            0
 --invoking executable xjoda
   JODA beginning optimization cycle #  7.
   Retrieving information from last optimization cycle.
 OriVec is   0.000000000000000E+000  -1.00000000000000     
 -2.239506646653725E-016                    -2
   Internal coordinate forces and energy gradients (atomic units): 
           R       dV/dR             R       dV/dR             R       dV/dR
 [r1   ]  1.87575  0.0000014 [r1   ]  1.87575  0.0000014 [a1   ]  1.83102 -0.0000019
                     6                    -1                     0 ****
   Hessian from cycle  6 read.
   BFGS update using last two gradients and previous step.
   Optimization cycle  7.  Updating structure with Newton-Raphson step.
  @EFOL-I, Current internal coordinate Hessian written to FCMINT.
   There are   2 independent internal coordinates which will be optimized.
   Hessian matrix in totally symmetric symmetry coordinates: 
              r1        a1   
  r1         0.448115  0.067627
  a1         0.067627  0.196660
   The eigenvectors of the Hessian matrix: 
                   1         2
  r1         0.244252  0.969712
  a1        -0.969712  0.244252
   The eigenvalues of the Hessian matrix: 
     0.17963    0.46515
   Gradients along Hessian eigenvectors: 
     0.00000    0.00000
   There are  0 negative eigenvalues.
   Summary of Optimization Cycle: 
   The maximum unscaled step is:    0.00001.
   Scale factor set to:  1.00000.
   Forces are in hartree/bohr and hartree/radian.
   Parameter values are in Angstroms and degrees.
--------------------------------------------------------------------------
  Parameter     dV/dR           Step          Rold            Rnew
--------------------------------------------------------------------------
    r1      0.0000013530   -0.0000022483    0.9926045144    0.9926022661
    a1     -0.0000018591    0.0006600169  104.9097300534  104.9103900703
--------------------------------------------------------------------------
  Minimum force:  0.000001353 / RMS force:  0.000001626
--------------------------------------------------------------------------------
   RMS gradient is below .10000E-04.
   Convergence criterion satisfied.  Optimization completed.
--------------------------------------------------------------------------------
   Interatomic distance matrix (Angstroms) 
 
                 O             H             H    
                [ 1]        [ 2]        [ 3]
  O    [ 1]     0.00000
  H    [ 2]     0.99260     0.00000
  H    [ 3]     0.99260     1.57402     0.00000
 @EFOL-I, Writing out completion flag to disk
                0.06 seconds walltime passed
                0.06 seconds walltime passed
 --executable xjoda finished with status            0
 --invoking executable xvprop
  @GETMEM-I,   Allocated    6675 MB of main memory.
   Property integrals will be calculated.
 
    --------------------------------------------------------------
                                   Property evaluated at 
    Property type                X             Y             Z
    --------------------------------------------------------------
    Dipole moment               ----          ----          ----  
    Quadrupole moment           ----          ----          ----  
    Octopole moment             ----          ----          ----  
    Relativisitic corr.         ----          ----          ----  
    Second moment            0.0000000     0.0000000     0.0000000
    Electron density         0.0000000     0.0000000     0.1279251
    Electron density         0.0000000    -1.4872334    -1.0151318
    Electron density         0.0000000     1.4872334    -1.0151318
    Field gradient           0.0000000     0.0000000     0.1279251
    Field gradient           0.0000000    -1.4872334    -1.0151318
    Field gradient           0.0000000     1.4872334    -1.0151318
    Potential                0.0000000     0.0000000     0.1279251
    Potential                0.0000000    -1.4872334    -1.0151318
    Potential                0.0000000     1.4872334    -1.0151318
    --------------------------------------------------------------
 
  @CHECKOUT-I, Total execution time :       0.0200 seconds.
 --executable xvprop finished with status            0
 --invoking executable xprops
  @DRVPRP-I, Properties computed from the SCF density matrix follow.
   Components of electric dipole moment 
        X =    0.0000000000   Y =    0.0000000000   Z =   -0.9565973240
   Components of second moment 
       XX =    5.1264176513  YY =    7.4477986294  ZZ =    6.3369137605
       XY =    0.0000000000  XZ =    0.0000000000  YZ =    0.0000000000
   Components of electric quadrupole moment 
       XX =    1.2506922838  YY =   -0.6856404096  ZZ =   -0.5650518742
       XY =   -2.2646068093  XZ =    0.0000000000  YZ =    0.0000000000
   Components of electric octopole moment 
      XXX =    0.0000000000 YYY =    0.0000000000 ZZZ =    1.6423695949
      XXY =    0.0000000000 XXZ =    1.1654395810 XYY =    0.0000000000
      YYZ =   -2.8078091759 XZZ =    0.0000000000 YZZ =   -0.0000000000
      XYZ =    0.0000000000
  Relativistic correction to the energy 
      Darwin =    0.1562235885 p**4   =   -0.2020835749 Total  =   -0.0458599864
   Charge densities at atomic centers 
          Z-matrix                               Charge
           center                               Density
              1                            233.3721615870
              2                              0.3381955011
              3                              0.3381955011
   Electric field gradient at atomic centers 
                             Z-matrix center   1:
       XX =   -2.1628077553  YY =    1.8846749732  ZZ =    0.2781327822
       XY =    0.0000000000  XZ =    0.0000000000  YZ =   -0.0000000000
                             Z-matrix center   2:
       XX =   -0.2771258586  YY =    0.2543505049  ZZ =    0.0227753538
       XY =    0.0000000000  XZ =    0.0000000000  YZ =    0.3371262608
                             Z-matrix center   3:
       XX =   -0.2771258586  YY =    0.2543505049  ZZ =    0.0227753538
       XY =    0.0000000000  XZ =    0.0000000000  YZ =   -0.3371262608
   Electrostatic potential at atomic centers 
          Z-matrix                             Potential
           center                               [<1/r>]
              1                            -22.2096243237
              2                             -0.9889959164
              3                             -0.9889959164
  @DRVPRP-I, Properties computed from the correlated density matrix follow.
   Components of electric dipole moment 
        X =    0.0000000000   Y =    0.0000000000   Z =   -0.8987840110
   Components of second moment 
       XX =    5.1302145756  YY =    7.5652418225  ZZ =    6.3875050955
       XY =    0.0000000000  XZ =    0.0000000000  YZ =    0.0000000000
   Components of electric quadrupole moment 
       XX =    1.3309126214  YY =   -0.7758894753  ZZ =   -0.5550231461
       XY =   -2.2646068093  XZ =    0.0000000000  YZ =    0.0000000000
   Components of electric octopole moment 
      XXX =    0.0000000000 YYY =    0.0000000000 ZZZ =    1.4598386203
      XXY =    0.0000000000 XXZ =    1.0133825153 XYY =    0.0000000000
      YYZ =   -2.4732211356 XZZ =    0.0000000000 YZZ =   -0.0000000000
      XYZ =    0.0000000000
  Relativistic correction to the energy 
      Darwin =    0.1562435733 p**4   =   -0.2021887561 Total  =   -0.0459451828
   Charge densities at atomic centers 
          Z-matrix                               Charge
           center                               Density
              1                            233.3990574653
              2                              0.3500711936
              3                              0.3500711936
   Electric field gradient at atomic centers 
                             Z-matrix center   1:
       XX =   -2.0980377332  YY =    1.7915133592  ZZ =    0.3065243741
       XY =    0.0000000000  XZ =    0.0000000000  YZ =   -0.0000000000
                             Z-matrix center   2:
       XX =   -0.2800766983  YY =    0.2569965891  ZZ =    0.0230801091
       XY =    0.0000000000  XZ =    0.0000000000  YZ =    0.3391586501
                             Z-matrix center   3:
       XX =   -0.2800766983  YY =    0.2569965891  ZZ =    0.0230801091
       XY =    0.0000000000  XZ =    0.0000000000  YZ =   -0.3391586501
   Electrostatic potential at atomic centers 
          Z-matrix                             Potential
           center                               [<1/r>]
              1                            -22.2261815296
              2                             -0.9977711789
              3                             -0.9977711789
 
  Mulliken population analysis of SCF density.
   Total density is analyzed.
 
  Population analysis by orbitals.
 -------------------------------------------------------
     Z-matrix
      Center          Function          Population
 -------------------------------------------------------
         1                S              1.98537055
         1                S              0.41957188
         1                S              1.49297840
         1                P              0.87492839
         1                P              1.12507161
         1                P              0.53681902
         1                P              0.68193447
         1                P              0.67044743
         1                P              0.92865825
         2                S              0.41832379
         3                S              0.41832379
         2                S              0.22378621
         3                S              0.22378621
 -------------------------------------------------------
  Population analysis by atoms (atomic charges).
 -------------------------------------------------------
     Z-matrix
      Center          Function          Population
 -------------------------------------------------------
         1                               8.71577999
         2                               0.64211000
         3                               0.64211000
 -------------------------------------------------------
 
  Mulliken population analysis of CCSD density.
   Total density is analyzed.
 
  Population analysis by orbitals.
 -------------------------------------------------------
     Z-matrix
      Center          Function          Population
 -------------------------------------------------------
         1                S              1.98537547
         1                S              0.42735131
         1                S              1.48168930
         1                P              0.87617089
         1                P              1.12281327
         1                P              0.55379494
         1                P              0.63869222
         1                P              0.67554179
         1                P              0.89135435
         2                S              0.43183362
         3                S              0.43183362
         2                S              0.24177461
         3                S              0.24177461
 -------------------------------------------------------
  Population analysis by atoms (atomic charges).
 -------------------------------------------------------
     Z-matrix
      Center          Function          Population
 -------------------------------------------------------
         1                               8.65278354
         2                               0.67360823
         3                               0.67360823
 -------------------------------------------------------
 --executable xprops finished with status            0
