
                                 *****************
                                 * O   R   C   A *
                                 *****************

           --- An Ab Initio, DFT and Semiempirical electronic structure package ---

                  #######################################################
                  #                        -***-                        #
                  #  Department of molecular theory and spectroscopy    #
                  #              Directorship: Frank Neese              #
                  # Max Planck Institute for Chemical Energy Conversion #
                  #                  D-45470 Muelheim/Ruhr              #
                  #                       Germany                       #
                  #                                                     #
                  #                  All rights reserved                #
                  #                        -***-                        #
                  #######################################################


                         Program Version 3.0.1 -  RELEASE  -


 With contributions from (in alphabetic order):
   Ute Becker             : Parallelization
   Dmytro Bykov           : SCF Hessian
   Dmitry Ganyushin       : Spin-Orbit,Spin-Spin,Magnetic field MRCI
   Andreas Hansen         : Spin unrestricted coupled pair/coupled cluster methods
   Dimitrios Liakos       : Extrapolation schemes; parallel MDCI
   Robert Izsak           : Overlap fitted RIJCOSX, COSX-SCS-MP3
   Christian Kollmar      : KDIIS, OOCD, Brueckner-CCSD(T), CCSD density
   Simone Kossmann        : Meta GGA functionals, TD-DFT gradient, OOMP2, MP2 Hessian
   Taras Petrenko         : DFT Hessian,TD-DFT gradient, ASA and ECA modules, normal mode analysis, Resonance Raman, ABS, FL, XAS/XES, NRVS
   Christoph Reimann      : Effective Core Potentials
   Michael Roemelt        : Restricted open shell CIS
   Christoph Riplinger    : Improved optimizer, TS searches, QM/MM, DLPNO-CCSD
   Barbara Sandhoefer     : DKH picture change effects
   Igor Schapiro          : Molecular dynamics
   Kantharuban Sivalingam : CASSCF convergence, NEVPT2
   Boris Wezisla          : Elementary symmetry handling
   Frank Wennmohs         : Technical directorship


 We gratefully acknowledge several colleagues who have allowed us to
 interface, adapt or use parts of their codes:
   Stefan Grimme, W. Hujo, H. Kruse, T. Risthaus : VdW corrections, initial TS optimization,
                                                   DFT functionals, gCP
   Ed Valeev                                     : LibInt (2-el integral package), F12 methods
   Garnet Chan, S. Sharma, R. Olivares           : DMRG
   Ulf Ekstrom                                   : XCFun DFT Library
   Mihaly Kallay                                 : mrcc  (arbitrary order and MRCC methods)
   Andreas Klamt, Michael Diedenhofen            : otool_cosmo (COSMO solvation model)
   Frank Weinhold                                : gennbo (NPA and NBO analysis)


 Your calculation uses the libint2 library for the computation of 2-el integrals
 For citations please refer to: http://libint.valeyev.net

 This ORCA versions uses:
   CBLAS   interface :  Fast vector & matrix operations
   LAPACKE interface :  Fast linear algebra routines
   SCALAPACK package :  Parallel linear algebra routines


Your calculation utilizes the basis: 6-31G
Cite in your paper:
H - He: W.J. Hehre, R. Ditchfield and J.A. Pople, J. Chem. Phys. 56,
Li - Ne: 2257 (1972).  Note: Li and B come from J.D. Dill and J.A.
         Pople, J. Chem. Phys. 62, 2921 (1975).
Na - Ar: M.M. Francl, W.J. Pietro, W.J. Hehre, J.S. Binkley, M.S. Gordon,
         D.J. DeFrees and J.A. Pople, J. Chem. Phys. 77, 3654 (1982)
K  - Zn: V. Rassolov, J.A. Pople, M. Ratner and T.L. Windus, J. Chem. Phys.
         (accepted, 1998)
Note: He and Ne are unpublished basis sets taken from the Gaussian program

================================================================================
                                        WARNINGS
                       Please study these warnings very carefully!
================================================================================
Now building the actual basis set

WARNING: The environment variable RSH_COMMAND is not set!
  ===> : All Displacements for the Numerical Hessian calculation
         will be started on localhost

WARNING: Geometry Optimization
  ===> : Switching off AutoStart
         For restart on a previous wavefunction, please use MOREAD


INFO   : the flag for use of LIBINT has been found!

================================================================================
                                       INPUT FILE
================================================================================
NAME = input.dat
|  1> %pal nprocs 8 end
|  2> 
|  3> ! TightOpt B3LYP 6-31G* NumFreq
|  4> 
|  5> * xyz	0	1
|  6> 	C         -3.29142        0.25618        0.08206
|  7> 	C         -2.14055        1.23829       -0.01150
|  8> 	C         -0.76634        0.55080       -0.01999
|  9> 	C         -0.62939       -1.02014       -0.05168
| 10> 	C         -1.80617       -1.98578        0.01831
| 11> 	C         -3.16580       -1.29892        0.00150
| 12> 	H         -4.23764        0.64783        0.20974
| 13> 	H         -2.26672        2.26120       -0.06398
| 14> 	H          0.08718        1.13070       -0.00460
| 15> 	H          0.31911       -1.42020       -0.12458
| 16> 	H         -4.02119       -1.87248       -0.06445
| 17> 	H         -1.69257       -3.01010        0.07212
| 18> *
| 19> 
| 20>                          ****END OF INPUT****
================================================================================

                       *****************************
                       * Geometry Optimization Run *
                       *****************************

Geometry optimization settings:
Update method            Update   .... BFGS
Choice of coordinates    CoordSys .... Redundant Internals
Initial Hessian          InHess   .... Almoef's Model

Convergence Tolerances:
Energy Change            TolE     ....  1.0000e-06 Eh
Max. Gradient            TolMAXG  ....  1.0000e-04 Eh/bohr
RMS Gradient             TolRMSG  ....  3.0000e-05 Eh/bohr
Max. Displacement        TolMAXD  ....  1.0000e-03 bohr
RMS Displacement         TolRMSD  ....  6.0000e-04 bohr

------------------------------------------------------------------------------
                        ORCA OPTIMIZATION COORDINATE SETUP
------------------------------------------------------------------------------

The optimization will be done in new redundant internal coordinates
Making redundant internal coordinates   ...  (new redundants) done
Evaluating the initial hessian          ...  (Almloef) done
Evaluating the coordinates              ...  done
Calculating the B-matrix                .... done
Calculating the G-matrix                .... done
Diagonalizing the G-matrix              .... done
The first mode is                       ....   24
The number of degrees of freedom        ....   30

    -----------------------------------------------------------------
                    Redundant Internal Coordinates


    -----------------------------------------------------------------
         Definition                    Initial Value    Approx d2E/dq
    -----------------------------------------------------------------
      1. B(C   1,C   0)                  1.5158         0.393510   
      2. B(C   2,C   1)                  1.5366         0.364614   
      3. B(C   3,C   2)                  1.5772         0.314084   
      4. B(C   4,C   3)                  1.5239         0.382087   
      5. B(C   5,C   4)                  1.5234         0.382787   
      6. B(C   5,C   0)                  1.5622         0.331844   
      7. B(H   6,C   0)                  1.0320         0.445613   
      8. B(H   7,C   1)                  1.0320         0.445618   
      9. B(H   8,C   2)                  1.0320         0.445619   
     10. B(H   9,C   3)                  1.0320         0.445621   
     11. B(H  10,C   5)                  1.0320         0.445623   
     12. B(H  11,C   4)                  1.0320         0.445607   
     13. A(C   1,C   0,H   6)          117.2500         0.338868   
     14. A(C   5,C   0,H   6)          117.2502         0.329413   
     15. A(C   1,C   0,C   5)          125.4998         0.359255   
     16. A(C   2,C   1,H   7)          123.5403         0.334593   
     17. A(C   0,C   1,H   7)          123.5392         0.338869   
     18. A(C   0,C   1,C   2)          112.9205         0.365078   
     19. A(C   3,C   2,H   8)          119.2204         0.326439   
     20. A(C   1,C   2,H   8)          119.2196         0.334593   
     21. A(C   1,C   2,C   3)          121.5600         0.351344   
     22. A(C   4,C   3,H   9)          117.8624         0.337209   
     23. A(C   2,C   3,H   9)          117.8617         0.326439   
     24. A(C   2,C   3,C   4)          124.2760         0.354138   
     25. A(C   3,C   4,C   5)          113.7664         0.366279   
     26. A(C   5,C   4,H  11)          123.1167         0.337310   
     27. A(C   3,C   4,H  11)          123.1169         0.337207   
     28. A(C   0,C   5,H  10)          119.3329         0.329414   
     29. A(C   0,C   5,C   4)          121.3335         0.357570   
     30. A(C   4,C   5,H  10)          119.3336         0.337312   
     31. D(H   7,C   1,C   0,C   5)    172.6709         0.010668   
     32. D(H   7,C   1,C   0,H   6)     -7.3298         0.010668   
     33. D(C   2,C   1,C   0,H   6)    172.6701         0.010668   
     34. D(C   2,C   1,C   0,C   5)     -7.3292         0.010668   
     35. D(H   8,C   2,C   1,C   0)   -175.1355         0.009264   
     36. D(C   3,C   2,C   1,C   0)      4.8650         0.009264   
     37. D(C   3,C   2,C   1,H   7)   -175.1351         0.009264   
     38. D(H   8,C   2,C   1,H   7)      4.8644         0.009264   
     39. D(H   9,C   3,C   2,H   8)     -4.3087         0.007121   
     40. D(H   9,C   3,C   2,C   1)    175.6908         0.007121   
     41. D(C   4,C   3,C   2,H   8)    175.6916         0.007121   
     42. D(C   4,C   3,C   2,C   1)     -4.3089         0.007121   
     43. D(H  11,C   4,C   3,C   2)   -174.9558         0.010097   
     44. D(C   5,C   4,C   3,H   9)   -174.9561         0.010097   
     45. D(C   5,C   4,C   3,C   2)      5.0436         0.010097   
     46. D(H  11,C   4,C   3,H   9)      5.0446         0.010097   
     47. D(H  10,C   5,C   4,H  11)     -7.0041         0.010131   
     48. D(C   0,C   5,C   4,H  11)    172.9967         0.010131   
     49. D(C   0,C   5,C   4,C   3)     -7.0027         0.010131   
     50. D(H  10,C   5,C   0,H   6)      9.0183         0.007830   
     51. D(H  10,C   5,C   0,C   1)   -170.9824         0.007830   
     52. D(H  10,C   5,C   4,C   3)    172.9965         0.010131   
     53. D(C   4,C   5,C   0,H   6)   -170.9825         0.007830   
     54. D(C   4,C   5,C   0,C   1)      9.0168         0.007830   
    -----------------------------------------------------------------

Number of atoms                         .... 12
Number of degrees of freedom            .... 54

         *************************************************************
         *                GEOMETRY OPTIMIZATION CYCLE   1            *
         *************************************************************
---------------------------------
CARTESIAN COORDINATES (ANGSTROEM)
---------------------------------
  C     -3.291420    0.256180    0.082060
  C     -2.140550    1.238290   -0.011500
  C     -0.766340    0.550800   -0.019990
  C     -0.629390   -1.020140   -0.051680
  C     -1.806170   -1.985780    0.018310
  C     -3.165800   -1.298920    0.001500
  H     -4.237640    0.647830    0.209740
  H     -2.266720    2.261200   -0.063980
  H      0.087180    1.130700   -0.004600
  H      0.319110   -1.420200   -0.124580
  H     -4.021190   -1.872480   -0.064450
  H     -1.692570   -3.010100    0.072120

----------------------------
CARTESIAN COORDINATES (A.U.)
----------------------------
  NO LB      ZA    FRAG    MASS        X           Y           Z
   0 C     6.0000    0    12.011         -6.219882391711086          0.484110040987946          0.155070926549578
   1 C     6.0000    0    12.011         -4.045053275965135          2.340028974373347         -0.021731850540094
   2 C     6.0000    0    12.011         -1.448172725469212          1.040861154563825         -0.037775625417086
   3 C     6.0000    0    12.011         -1.189374731428697         -1.927785218258426         -0.097661046601050
   4 C     6.0000    0    12.011         -3.413166651304547         -3.752580362218144          0.034600885512098
   5 C     6.0000    0    12.011         -5.982494994767898         -2.454603069872992          0.002834589200882
   6 H     1.0000    0     1.008         -8.007979054150052          1.224221281338205          0.396351159328643
   7 H     1.0000    0     1.008         -4.283480022281979          4.273048734022734         -0.120904678048282
   8 H     1.0000    0     1.008          0.164746324355255          2.136713339624759         -0.008692740216038
   9 H     1.0000    0     1.008          0.603030506595611         -2.683789055394961         -0.235422081763910
  10 H     1.0000    0     1.008         -7.598947832462797         -3.538474391244865         -0.121792849331225
  11 H     1.0000    0     1.008         -3.198493762491093         -5.688264635716360          0.136287048778401

--------------------------------
INTERNAL COORDINATES (ANGSTROEM)
--------------------------------
 C      0   0   0   0.000000     0.000     0.000
 C      1   0   0   1.515848     0.000     0.000
 C      2   1   0   1.536609   112.920     0.000
 C      3   2   1   1.577217   121.560     4.865
 C      4   3   2   1.523867   124.276   355.691
 C      5   4   3   1.523369   113.766     5.044
 H      1   2   3   1.032000   117.250   172.670
 H      2   1   3   1.031997   123.539   180.000
 H      3   2   1   1.031997   119.220   184.864
 H      4   3   2   1.031995   117.862   175.691
 H      6   5   4   1.031994   119.334   172.997
 H      5   4   3   1.032004   123.117   185.044

---------------------------
INTERNAL COORDINATES (A.U.)
---------------------------
 C      0   0   0   0.000000     0.000     0.000
 C      1   0   0   2.864538     0.000     0.000
 C      2   1   0   2.903770   112.920     0.000
 C      3   2   1   2.980507   121.560     4.865
 C      4   3   2   2.879691   124.276   355.691
 C      5   4   3   2.878750   113.766     5.044
 H      1   2   3   1.950198   117.250   172.670
 H      2   1   3   1.950192   123.539   180.000
 H      3   2   1   1.950191   119.220   184.864
 H      4   3   2   1.950189   117.862   175.691
 H      6   5   4   1.950187   119.334   172.997
 H      5   4   3   1.950205   123.117   185.044

---------------------
BASIS SET INFORMATION
---------------------
There are 2 groups of distinct atoms

 Group   1 Type C   : 10s4p1d contracted to 3s2p1d pattern {631/31/1}
 Group   2 Type H   : 4s contracted to 2s pattern {31}

Atom   0C    basis set group =>   1
Atom   1C    basis set group =>   1
Atom   2C    basis set group =>   1
Atom   3C    basis set group =>   1
Atom   4C    basis set group =>   1
Atom   5C    basis set group =>   1
Atom   6H    basis set group =>   2
Atom   7H    basis set group =>   2
Atom   8H    basis set group =>   2
Atom   9H    basis set group =>   2
Atom  10H    basis set group =>   2
Atom  11H    basis set group =>   2


           ************************************************************
           *        Program running with 8 parallel MPI-processes     *
           *              working on a common directory               *
           ************************************************************
------------------------------------------------------------------------------
                           ORCA GTO INTEGRAL CALCULATION
------------------------------------------------------------------------------

                         BASIS SET STATISTICS AND STARTUP INFO

 # of primitive gaussian shells          ...  114
 # of primitive gaussian functions       ...  186
 # of contracted shell                   ...   48
 # of contracted basis functions         ...   96
 Highest angular momentum                ...    2
 Maximum contraction depth               ...    6
 Integral package used                   ... LIBINT
 Integral threshhold            Thresh   ...  2.500e-11
 Primitive cut-off              TCut     ...  2.500e-12


                              INTEGRAL EVALUATION

 One electron integrals                  ... done
 Pre-screening matrix                    ... done
 Shell pair data                         ... done (   0.001 sec)

           ************************************************************
           *              Shut down parallel processing               *
           ************************************************************


           ************************************************************
           *        Program running with 8 parallel MPI-processes     *
           *              working on a common directory               *
           ************************************************************
-------------------------------------------------------------------------------
                                 ORCA SCF
-------------------------------------------------------------------------------

------------
SCF SETTINGS
------------
Hamiltonian:
 Density Functional     Method          .... DFT(GTOs)
 Exchange Functional    Exchange        .... B88
   X-Alpha parameter    XAlpha          ....  0.666667
   Becke's b parameter  XBeta           ....  0.004200
 Correlation Functional Correlation     .... LYP
 LDA part of GGA corr.  LDAOpt          .... VWN-5
 Gradients option       PostSCFGGA      .... off
 Hybrid DFT is turned on
   Fraction HF Exchange ScalHFX         ....  0.200000
   Scaling of DF-GGA-X  ScalDFX         ....  0.720000
   Scaling of DF-GGA-C  ScalDFC         ....  0.810000
   Scaling of DF-LDA-C  ScalLDAC        ....  1.000000
   Perturbative correction              ....  0.000000
   NL short-range parameter             ....  4.800000


General Settings:
 Integral files         IntName         .... input
 Hartree-Fock type      HFTyp           .... RHF
 Total Charge           Charge          ....    0
 Multiplicity           Mult            ....    1
 Number of Electrons    NEL             ....   42
 Basis Dimension        Dim             ....   96
 Nuclear Repulsion      ENuc            ....    188.7780226309 Eh

Convergence Acceleration:
 DIIS                   CNVDIIS         .... on
   Start iteration      DIISMaxIt       ....    12
   Startup error        DIISStart       ....  0.200000
   # of expansion vecs  DIISMaxEq       ....     5
   Bias factor          DIISBfac        ....   1.050
   Max. coefficient     DIISMaxC        ....  10.000
 Newton-Raphson         CNVNR           .... off
 SOSCF                  CNVSOSCF        .... on
   Start iteration      SOSCFMaxIt      ....   150
   Startup grad/error   SOSCFStart      ....  0.003300
 Level Shifting         CNVShift        .... on
   Level shift para.    LevelShift      ....    0.2500
   Turn off err/grad.   ShiftErr        ....    0.0010
 Zerner damping         CNVZerner       .... off
 Static damping         CNVDamp         .... on
   Fraction old density DampFac         ....    0.7000
   Max. Damping (<1)    DampMax         ....    0.9800
   Min. Damping (>=0)   DampMin         ....    0.0000
   Turn off err/grad.   DampErr         ....    0.1000
 Fernandez-Rico         CNVRico         .... off

SCF Procedure:
 Maximum # iterations   MaxIter         ....   125
 SCF integral mode      SCFMode         .... Direct
   Integral package                     .... LIBINT
 Reset frequeny         DirectResetFreq ....    20
 Integral Threshold     Thresh          ....  2.500e-11 Eh
 Primitive CutOff       TCut            ....  2.500e-12 Eh

Convergence Tolerance:
 Convergence Check Mode ConvCheckMode   .... Total+1el-Energy
 Energy Change          TolE            ....  1.000e-08 Eh
 1-El. energy change                    ....  1.000e-05 Eh
 Orbital Gradient       TolG            ....  1.000e-05
 Orbital Rotation angle TolX            ....  1.000e-05
 DIIS Error             TolErr          ....  5.000e-07


Diagonalization of the overlap matrix:
Smallest eigenvalue                        ... 1.456e-03
Time for diagonalization                   ...    0.024 sec
Threshold for overlap eigenvalues          ... 1.000e-08
Number of eigenvalues below threshold      ... 0
Time for construction of square roots      ...    0.001 sec
Total time needed                          ...    0.025 sec

-------------------
DFT GRID GENERATION
-------------------

General Integration Accuracy     IntAcc      ...  4.340
Radial Grid Type                 RadialGrid  ... Gauss-Chebyshev
Angular Grid (max. acc.)         AngularGrid ... Lebedev-110
Angular grid pruning method      GridPruning ... 3 (G Style)
Weight generation scheme         WeightScheme... Becke
Basis function cutoff            BFCut       ...    1.0000e-11
Integration weight cutoff        WCut        ...    1.0000e-14
Grids for H and He will be reduced by one unit

# of grid points (after initial pruning)     ...  14700 (   0.0 sec)
# of grid points (after weights+screening)   ...  13853 (   0.0 sec)
nearest neighbour list constructed           ...    0.0 sec
Grid point re-assignment to atoms done       ...    0.0 sec
Grid point division into batches done        ...    0.0 sec
Reduced shell lists constructed in    0.0 sec

Total number of grid points                  ...    13853
Total number of batches                      ...      223
Average number of points per batch           ...       62
Average number of grid points per atom       ...     1154
Average number of shells per batch           ...    41.83 (87.14%)
Average number of basis functions per batch  ...    88.17 (91.85%)
Average number of large shells per batch     ...    36.72 (87.80%)
Average number of large basis fcns per batch ...    76.79 (87.09%)
Maximum spatial batch extension              ...   4.16,  3.63, 19.38 au
Average spatial batch extension              ...   0.26,  0.24,  0.41 au

Time for grid setup =    0.043 sec

------------------------------
INITIAL GUESS: MODEL POTENTIAL
------------------------------
Loading Hartree-Fock densities                     ... done
Calculating cut-offs                               ... done
Setting up the integral package                    ... done
Initializing the effective Hamiltonian             ... done
Starting the Coulomb interaction                   ... done (   0.0 sec)
Reading the grid                                   ... done
Mapping shells                                     ... done
Starting the XC term evaluation                    ... done (   0.0 sec)
  promolecular density results
     # of electrons  =     42.001097631
     EX              =    -32.417653268
     EC              =     -1.358610332
     EX+EC           =    -33.776263600
Transforming the Hamiltonian                       ... done (   0.0 sec)
Diagonalizing the Hamiltonian                      ... done (   0.0 sec)
Back transforming the eigenvectors                 ... done (   0.0 sec)
Now organizing SCF variables                       ... done
                      ------------------
                      INITIAL GUESS DONE (   0.2 sec)
                      ------------------
--------------
SCF ITERATIONS
--------------
ITER       Energy         Delta-E        Max-DP      RMS-DP      [F,P]     Damp
               ***  Starting incremental Fock matrix formation  ***
  0   -231.8956891101   0.000000000000 0.02908676  0.00198883  0.0818076 0.7000
  1   -231.9304876976  -0.034798587555 0.02388995  0.00157102  0.0488786 0.7000
                               ***Turning on DIIS***
  2   -231.9478446033  -0.017356905696 0.04666322  0.00297148  0.0244023 0.0000
  3   -231.9737512345  -0.025906631165 0.01697046  0.00105920  0.0247732 0.0000
  4   -231.9788643658  -0.005113131284 0.00512221  0.00025799  0.0043318 0.0000
                      *** Initiating the SOSCF procedure ***
                           *** Shutting down DIIS ***
                      *** Re-Reading the Fockian *** 
                      *** Removing any level shift *** 
ITER      Energy       Delta-E        Grad      Rot      Max-DP    RMS-DP
  5   -231.97904180  -0.0001774373  0.000418  0.000418  0.001701  0.000081
               *** Restarting incremental Fock matrix formation ***
  6   -231.97904899  -0.0000071855  0.000179  0.000608  0.000849  0.000047
  7   -231.97904781   0.0000011743  0.000334  0.000405  0.000565  0.000021
  8   -231.97904999  -0.0000021804  0.000044  0.000186  0.000200  0.000009
  9   -231.97904994   0.0000000513  0.000071  0.000131  0.000130  0.000005
 10   -231.97905004  -0.0000000971  0.000012  0.000029  0.000050  0.000003
 11   -231.97905004   0.0000000021  0.000016  0.000015  0.000030  0.000002
 12   -231.97905004  -0.0000000066  0.000003  0.000013  0.000013  0.000000
 13   -231.97905004   0.0000000006  0.000006  0.000009  0.000009  0.000000
                 **** Energy Check signals convergence ****
              ***Rediagonalizing the Fockian in SOSCF/NRSCF***

               *****************************************************
               *                     SUCCESS                       *
               *           SCF CONVERGED AFTER  14 CYCLES          *
               *****************************************************

Setting up the final grid:

General Integration Accuracy     IntAcc      ...  4.670
Radial Grid Type                 RadialGrid  ... Gauss-Chebyshev
Angular Grid (max. acc.)         AngularGrid ... Lebedev-302
Angular grid pruning method      GridPruning ... 3 (G Style)
Weight generation scheme         WeightScheme... Becke
Basis function cutoff            BFCut       ...    1.0000e-11
Integration weight cutoff        WCut        ...    1.0000e-14
Grids for H and He will be reduced by one unit

# of grid points (after initial pruning)     ...  57636 (   0.0 sec)
# of grid points (after weights+screening)   ...  53663 (   0.0 sec)
nearest neighbour list constructed           ...    0.0 sec
Grid point re-assignment to atoms done       ...    0.0 sec
Grid point division into batches done        ...    0.2 sec
Reduced shell lists constructed in    0.3 sec

Total number of grid points                  ...    53663
Total number of batches                      ...      845
Average number of points per batch           ...       63
Average number of grid points per atom       ...     4472
Average number of shells per batch           ...    41.16 (85.75%)
Average number of basis functions per batch  ...    86.77 (90.38%)
Average number of large shells per batch     ...    34.79 (84.51%)
Average number of large basis fcns per batch ...    72.24 (83.26%)
Maximum spatial batch extension              ...   5.11,  4.11, 16.82 au
Average spatial batch extension              ...   0.17,  0.17,  0.24 au

Final grid set up in    0.3 sec
Final integration                            ... done (   0.1 sec)
Change in XC energy                          ...    -0.000594925
Integrated number of electrons               ...    41.999961303
Previous integrated no of electrons          ...    42.000433754

----------------
TOTAL SCF ENERGY
----------------

Total Energy       :         -231.97964497 Eh           -6312.48706 eV

Components:
Nuclear Repulsion  :          188.77802263 Eh            5136.91115 eV
Electronic Energy  :         -420.75766760 Eh          -11449.39821 eV

One Electron Energy:         -685.01859259 Eh          -18640.30356 eV
Two Electron Energy:          264.26092499 Eh            7190.90535 eV

Virial components:
Potential Energy   :         -461.51195598 Eh          -12558.37878 eV
Kinetic Energy     :          229.53231100 Eh            6245.89172 eV
Virial Ratio       :            2.01066226


DFT components:
N(Alpha)           :       20.999980651684 electrons
N(Beta)            :       20.999980651684 electrons
N(Total)           :       41.999961303368 electrons
E(X)               :      -26.161307984656 Eh       
E(C)               :       -1.614183903860 Eh       
E(XC)              :      -27.775491888517 Eh       

---------------
SCF CONVERGENCE
---------------

  Last Energy change         ...   -9.6296e-10  Tolerance :   1.0000e-08
  Last MAX-Density change    ...    3.3764e-07  Tolerance :   1.0000e-07
  Last RMS-Density change    ...    2.2613e-08  Tolerance :   5.0000e-09
  Last Orbital Gradient      ...    1.7177e-07  Tolerance :   1.0000e-05
  Last Orbital Rotation      ...    1.7602e-07  Tolerance :   1.0000e-05

             **** THE GBW FILE WAS UPDATED (input.gbw) ****
             **** DENSITY FILE WAS UPDATED (input.scfp.tmp) ****
             **** ENERGY FILE WAS UPDATED (input.en.tmp) ****
----------------
ORBITAL ENERGIES
----------------

  NO   OCC          E(Eh)            E(eV) 
   0   2.0000     -10.205398      -277.7030 
   1   2.0000     -10.204634      -277.6822 
   2   2.0000     -10.204030      -277.6658 
   3   2.0000     -10.203349      -277.6472 
   4   2.0000     -10.203320      -277.6464 
   5   2.0000     -10.201526      -277.5976 
   6   2.0000      -0.784862       -21.3572 
   7   2.0000      -0.718823       -19.5602 
   8   2.0000      -0.702154       -19.1066 
   9   2.0000      -0.595269       -16.1981 
  10   2.0000      -0.592415       -16.1204 
  11   2.0000      -0.503986       -13.7142 
  12   2.0000      -0.494302       -13.4506 
  13   2.0000      -0.424491       -11.5510 
  14   2.0000      -0.397526       -10.8172 
  15   2.0000      -0.390425       -10.6240 
  16   2.0000      -0.350609        -9.5406 
  17   2.0000      -0.334964        -9.1148 
  18   2.0000      -0.313259        -8.5242 
  19   2.0000      -0.231771        -6.3068 
  20   2.0000      -0.216446        -5.8898 
  21   0.0000      -0.022883        -0.6227 
  22   0.0000      -0.019248        -0.5238 
  23   0.0000       0.096613         2.6290 
  24   0.0000       0.122636         3.3371 
  25   0.0000       0.144672         3.9367 
  26   0.0000       0.158127         4.3029 
  27   0.0000       0.166634         4.5343 
  28   0.0000       0.167932         4.5696 
  29   0.0000       0.179458         4.8833 
  30   0.0000       0.241345         6.5673 
  31   0.0000       0.250826         6.8253 
  32   0.0000       0.254498         6.9253 
  33   0.0000       0.265368         7.2210 
  34   0.0000       0.398314        10.8387 
  35   0.0000       0.428248        11.6532 
  36   0.0000       0.507632        13.8134 
  37   0.0000       0.522442        14.2164 
  38   0.0000       0.542037        14.7496 
  39   0.0000       0.561807        15.2875 
  40   0.0000       0.572200        15.5704 
  41   0.0000       0.600193        16.3321 
  42   0.0000       0.609194        16.5770 
  43   0.0000       0.617537        16.8040 
  44   0.0000       0.619431        16.8556 
  45   0.0000       0.627737        17.0816 
  46   0.0000       0.655330        17.8324 
  47   0.0000       0.663332        18.0502 
  48   0.0000       0.727996        19.8098 
  49   0.0000       0.847542        23.0628 
  50   0.0000       0.873424        23.7671 
  51   0.0000       0.894486        24.3402 
  52   0.0000       0.900320        24.4989 
  53   0.0000       0.903118        24.5751 
  54   0.0000       0.905515        24.6403 
  55   0.0000       0.940637        25.5960 
  56   0.0000       0.952158        25.9095 
  57   0.0000       0.996007        27.1027 
  58   0.0000       1.032927        28.1074 
  59   0.0000       1.036187        28.1961 
  60   0.0000       1.048536        28.5321 
  61   0.0000       1.083713        29.4893 
  62   0.0000       1.113493        30.2997 
  63   0.0000       1.304398        35.4945 
  64   0.0000       1.330485        36.2043 
  65   0.0000       1.387734        37.7622 
  66   0.0000       1.439212        39.1630 
  67   0.0000       1.476870        40.1877 
  68   0.0000       1.492265        40.6066 
  69   0.0000       1.507926        41.0328 
  70   0.0000       1.563176        42.5362 
  71   0.0000       1.670870        45.4667 
  72   0.0000       1.692421        46.0531 
  73   0.0000       1.732438        47.1420 
  74   0.0000       1.853415        50.4340 
  75   0.0000       1.888129        51.3786 
  76   0.0000       1.935016        52.6545 
  77   0.0000       1.951357        53.0991 
  78   0.0000       1.980986        53.9054 
  79   0.0000       2.007105        54.6161 
  80   0.0000       2.022904        55.0460 
  81   0.0000       2.074324        56.4452 
  82   0.0000       2.099609        57.1333 
  83   0.0000       2.116951        57.6052 
  84   0.0000       2.172433        59.1149 
  85   0.0000       2.210512        60.1511 
  86   0.0000       2.397292        65.2336 
  87   0.0000       2.452206        66.7279 
  88   0.0000       2.488234        67.7083 
  89   0.0000       2.538610        69.0791 
  90   0.0000       2.561598        69.7046 
  91   0.0000       2.582355        70.2695 
  92   0.0000       2.610890        71.0459 
  93   0.0000       2.682822        73.0033 
  94   0.0000       2.845816        77.4386 
  95   0.0000       3.078143        83.7605 

                    ********************************
                    * MULLIKEN POPULATION ANALYSIS *
                    ********************************

-----------------------
MULLIKEN ATOMIC CHARGES
-----------------------
   0 C :   -0.140344
   1 C :   -0.139427
   2 C :   -0.145839
   3 C :   -0.141879
   4 C :   -0.139695
   5 C :   -0.142572
   6 H :    0.132686
   7 H :    0.152037
   8 H :    0.139789
   9 H :    0.134186
  10 H :    0.139924
  11 H :    0.151134
Sum of atomic charges:    0.0000000

--------------------------------
MULLIKEN REDUCED ORBITAL CHARGES
--------------------------------
  0 C s       :     3.253806  s :     3.253806
      pz      :     0.991058  p :     2.857405
      px      :     0.961797
      py      :     0.904550
      dz2     :     0.003192  d :     0.029133
      dxz     :     0.001678
      dyz     :     0.003669
      dx2y2   :     0.010406
      dxy     :     0.010188
  1 C s       :     3.246718  s :     3.246718
      pz      :     0.996127  p :     2.863711
      px      :     0.920854
      py      :     0.946730
      dz2     :     0.003317  d :     0.028998
      dxz     :     0.003896
      dyz     :     0.001176
      dx2y2   :     0.012327
      dxy     :     0.008282
  2 C s       :     3.264730  s :     3.264730
      pz      :     0.994159  p :     2.852891
      px      :     0.945274
      py      :     0.913458
      dz2     :     0.003295  d :     0.028218
      dxz     :     0.001920
      dyz     :     0.002629
      dx2y2   :     0.007827
      dxy     :     0.012548
  3 C s       :     3.258836  s :     3.258836
      pz      :     0.996113  p :     2.854528
      px      :     0.957072
      py      :     0.901343
      dz2     :     0.003268  d :     0.028515
      dxz     :     0.001446
      dyz     :     0.003373
      dx2y2   :     0.010190
      dxy     :     0.010238
  4 C s       :     3.246046  s :     3.246046
      pz      :     0.993370  p :     2.864482
      px      :     0.921124
      py      :     0.949988
      dz2     :     0.003315  d :     0.029167
      dxz     :     0.004025
      dyz     :     0.001132
      dx2y2   :     0.012506
      dxy     :     0.008189
  5 C s       :     3.256640  s :     3.256640
      pz      :     0.995958  p :     2.857175
      px      :     0.946115
      py      :     0.915102
      dz2     :     0.003283  d :     0.028756
      dxz     :     0.002048
      dyz     :     0.002798
      dx2y2   :     0.008058
      dxy     :     0.012570
  6 H s       :     0.867314  s :     0.867314
  7 H s       :     0.847963  s :     0.847963
  8 H s       :     0.860211  s :     0.860211
  9 H s       :     0.865814  s :     0.865814
 10 H s       :     0.860076  s :     0.860076
 11 H s       :     0.848866  s :     0.848866


                     *******************************
                     * LOEWDIN POPULATION ANALYSIS *
                     *******************************

----------------------
LOEWDIN ATOMIC CHARGES
----------------------
   0 C :   -0.131396
   1 C :   -0.140498
   2 C :   -0.133157
   3 C :   -0.133926
   4 C :   -0.138896
   5 C :   -0.134458
   6 H :    0.130864
   7 H :    0.141317
   8 H :    0.133596
   9 H :    0.131639
  10 H :    0.134405
  11 H :    0.140508

-------------------------------
LOEWDIN REDUCED ORBITAL CHARGES
-------------------------------
  0 C s       :     2.980871  s :     2.980871
      pz      :     0.990583  p :     3.089601
      px      :     1.070665
      py      :     1.028353
      dz2     :     0.004615  d :     0.060925
      dxz     :     0.003190
      dyz     :     0.007176
      dx2y2   :     0.023102
      dxy     :     0.022842
  1 C s       :     2.978293  s :     2.978293
      pz      :     0.989185  p :     3.100609
      px      :     1.035450
      py      :     1.075974
      dz2     :     0.004942  d :     0.061596
      dxz     :     0.007695
      dyz     :     0.002260
      dx2y2   :     0.025236
      dxy     :     0.021463
  2 C s       :     2.991394  s :     2.991394
      pz      :     0.991099  p :     3.083570
      px      :     1.061239
      py      :     1.031233
      dz2     :     0.004598  d :     0.058192
      dxz     :     0.003728
      dyz     :     0.005089
      dx2y2   :     0.018812
      dxy     :     0.025965
  3 C s       :     2.986739  s :     2.986739
      pz      :     0.994316  p :     3.088064
      px      :     1.069657
      py      :     1.024090
      dz2     :     0.004617  d :     0.059123
      dxz     :     0.002811
      dyz     :     0.006531
      dx2y2   :     0.022511
      dxy     :     0.022653
  4 C s       :     2.977189  s :     2.977189
      pz      :     0.986450  p :     3.099639
      px      :     1.037104
      py      :     1.076085
      dz2     :     0.004937  d :     0.062067
      dxz     :     0.007970
      dyz     :     0.002168
      dx2y2   :     0.025629
      dxy     :     0.021363
  5 C s       :     2.984003  s :     2.984003
      pz      :     0.993107  p :     3.090341
      px      :     1.063577
      py      :     1.033657
      dz2     :     0.004702  d :     0.060113
      dxz     :     0.003982
      dyz     :     0.005451
      dx2y2   :     0.019567
      dxy     :     0.026412
  6 H s       :     0.869136  s :     0.869136
  7 H s       :     0.858683  s :     0.858683
  8 H s       :     0.866404  s :     0.866404
  9 H s       :     0.868361  s :     0.868361
 10 H s       :     0.865595  s :     0.865595
 11 H s       :     0.859492  s :     0.859492


                      *****************************
                      * MAYER POPULATION ANALYSIS *
                      *****************************

  NA   - Mulliken gross atomic population
  ZA   - Total nuclear charge
  QA   - Mulliken gross atomic charge
  VA   - Mayer's total valence
  BVA  - Mayer's bonded valence
  FA   - Mayer's free valence

  ATOM       NA         ZA         QA         VA         BVA        FA
  0 C      6.1403     6.0000    -0.1403     3.9101     3.9101     0.0000
  1 C      6.1394     6.0000    -0.1394     3.8987     3.8987     0.0000
  2 C      6.1458     6.0000    -0.1458     3.9010     3.9010     0.0000
  3 C      6.1419     6.0000    -0.1419     3.9052     3.9052     0.0000
  4 C      6.1397     6.0000    -0.1397     3.9016     3.9016    -0.0000
  5 C      6.1426     6.0000    -0.1426     3.9039     3.9039     0.0000
  6 H      0.8673     1.0000     0.1327     0.9310     0.9310    -0.0000
  7 H      0.8480     1.0000     0.1520     0.9303     0.9303     0.0000
  8 H      0.8602     1.0000     0.1398     0.9305     0.9305    -0.0000
  9 H      0.8658     1.0000     0.1342     0.9314     0.9314     0.0000
 10 H      0.8601     1.0000     0.1399     0.9308     0.9308     0.0000
 11 H      0.8489     1.0000     0.1511     0.9300     0.9300    -0.0000

  Mayer bond orders larger than 0.1
B(  0-C ,  1-C ) :   1.4413 B(  0-C ,  3-C ) :   0.1062 B(  0-C ,  5-C ) :   1.4124 
B(  0-C ,  6-H ) :   0.9301 B(  1-C ,  2-C ) :   1.4221 B(  1-C ,  7-H ) :   0.9246 
B(  2-C ,  3-C ) :   1.4164 B(  2-C ,  5-C ) :   0.1138 B(  2-C ,  8-H ) :   0.9269 
B(  3-C ,  4-C ) :   1.4333 B(  3-C ,  9-H ) :   0.9293 B(  4-C ,  5-C ) :   1.4319 
B(  4-C , 11-H ) :   0.9249 B(  5-C , 10-H ) :   0.9277 

-------
TIMINGS
-------

Total SCF time: 0 days 0 hours 0 min 5 sec 

Total time                  ....       5.709 sec
Sum of individual times     ....       5.910 sec  (103.5%)

Fock matrix formation       ....       5.301 sec  ( 92.8%)
  Coulomb formation         ....       4.852 sec  ( 91.5% of F)
  XC integration            ....       0.444 sec  (  8.4% of F)
    Basis function eval.    ....       0.125 sec  ( 28.1% of XC)
    Density eval.           ....       0.081 sec  ( 18.2% of XC)
    XC-Functional eval.     ....       0.026 sec  (  5.9% of XC)
    XC-Potential eval.      ....       0.143 sec  ( 32.3% of XC)
Diagonalization             ....       0.018 sec  (  0.3%)
Density matrix formation    ....       0.006 sec  (  0.1%)
Population analysis         ....       0.005 sec  (  0.1%)
Initial guess               ....       0.179 sec  (  3.1%)
Orbital Transformation      ....       0.000 sec  (  0.0%)
Orbital Orthonormalization  ....       0.000 sec  (  0.0%)
DIIS solution               ....       0.006 sec  (  0.1%)
SOSCF solution              ....       0.018 sec  (  0.3%)
Grid generation             ....       0.378 sec  (  6.6%)
           ************************************************************
           *              Shut down parallel processing               *
           ************************************************************

-------------------------   --------------------
FINAL SINGLE POINT ENERGY      -231.979644970826
-------------------------   --------------------



           ************************************************************
           *        Program running with 8 parallel MPI-processes     *
           *              working on a common directory               *
           ************************************************************
------------------------------------------------------------------------------
                         ORCA SCF GRADIENT CALCULATION
------------------------------------------------------------------------------

Gradient of the Kohn-Sham DFT energy:
Kohn-Sham wavefunction type      ... RKS
Hartree-Fock exchange scaling    ...    0.200
Number of operators              ...    1
Number of atoms                  ...   12
Basis set dimensions             ...   96
Integral neglect threshold       ... 2.5e-11
Integral primitive cutoff        ... 2.5e-12

Nuclear repulsion gradient       ... done
One Electron Gradient            ... done
Pre-screening matrix             ... done
Starting the two electron gradient:
Two electron gradient done
Exchange-correlation gradient    ... done

------------------
CARTESIAN GRADIENT
------------------

   1   C   :   -0.095103215    0.047710343    0.018877222
   2   C   :   -0.028477989    0.166153880   -0.010982068
   3   C   :    0.105170135    0.077442674    0.006483527
   4   C   :    0.103497418   -0.054861242   -0.012725226
   5   C   :    0.019352332   -0.161624028    0.011563700
   6   C   :   -0.105311675   -0.074933545   -0.012987798
   7   H   :    0.042676870   -0.013851294    0.000131633
   8   H   :    0.005338952   -0.041358592   -0.002041565
   9   H   :   -0.038053365   -0.020986243    0.002808621
  10   H   :   -0.041961800    0.013717843   -0.000368070
  11   H   :    0.038217572    0.020942305   -0.002691966
  12   H   :   -0.005345235    0.041647899    0.001931990

Norm of the cartesian gradient     ...    0.354935890
RMS gradient                       ...    0.059155982
MAX gradient                       ...    0.166153880

-------
TIMINGS
-------

Total SCF gradient time            ...        1.686 sec

One electron gradient       ....       0.014 sec  (  0.9%)
Prescreening matrices       ....       0.019 sec  (  1.1%)
Two electron gradient       ....       0.988 sec  ( 58.6%)
XC gradient                 ....       0.521 sec  ( 30.9%)
           ************************************************************
           *              Shut down parallel processing               *
           ************************************************************
------------------------------------------------------------------------------
                         ORCA GEOMETRY RELAXATION STEP
------------------------------------------------------------------------------

Reading the OPT-File                    .... done
Getting information on internals        .... done
Copying old internal coords+grads       .... done
Making the new internal coordinates     .... (new redundants).... done
Validating the new internal coordinates .... (new redundants).... done
Calculating the B-matrix                .... done
Calculating the G,G- and P matrices     .... done
Transforming gradient to internals      .... done
Projecting the internal gradient        .... done
Number of atoms                         ....  12
Number of internal coordinates          ....  54
Current Energy                          ....  -231.979644971 Eh
Current gradient norm                   ....     0.354935890 Eh/bohr
Maximum allowed component of the step   ....  0.300
Current trust radius                    ....  0.300
Evaluating the initial hessian          ....  (Almloef) done
Projecting the Hessian                  .... done
Forming the augmented Hessian           .... done
Diagonalizing the augmented Hessian     .... done
Last element of RFO vector              ....  0.886235676
Lowest eigenvalues of augmented Hessian:
 -0.133607403  0.008024970  0.008388684  0.008675912  0.008966125
Length of the computed step             ....  0.522699149
Warning: the length of the step is outside the trust region - taking restricted step instead
The input lambda is                     ....    -0.133607
   iter:   1  x=   -0.290760  g=    1.165840 f(x)=     0.183214
   iter:   2  x=   -0.426602  g=    0.480530 f(x)=     0.065277
   iter:   3  x=   -0.486390  g=    0.270041 f(x)=     0.016145
   iter:   4  x=   -0.494150  g=    0.216494 f(x)=     0.001680
   iter:   5  x=   -0.494259  g=    0.210623 f(x)=     0.000023
   iter:   6  x=   -0.494259  g=    0.210542 f(x)=     0.000000
   iter:   7  x=   -0.494259  g=    0.210542 f(x)=     0.000000
The output lambda is                    ....    -0.494259 (7 iterations)
The final length of the internal step   ....  0.300000000
Converting the step to cartesian space:
 Initial RMS(Int)=    0.0408248290
Transforming coordinates:
 Iter   0:  RMS(Cart)=    0.0551076437 RMS(Int)=    0.0408339043
 Iter   1:  RMS(Cart)=    0.0005229190 RMS(Int)=    0.0003049271
 Iter   2:  RMS(Cart)=    0.0000185731 RMS(Int)=    0.0000103267
 Iter   3:  RMS(Cart)=    0.0000005777 RMS(Int)=    0.0000003252
 Iter   4:  RMS(Cart)=    0.0000000173 RMS(Int)=    0.0000000100
done
Storing new coordinates                 .... done

                                .--------------------.
          ----------------------|Geometry convergence|---------------------
          Item                value                 Tolerance   Converged
          -----------------------------------------------------------------
          RMS gradient        0.03509629            0.00003000      NO
          MAX gradient        0.11039577            0.00010000      NO
          RMS step            0.04082483            0.00060000      NO
          MAX step            0.13631009            0.00100000      NO
          ....................................................
          Max(Bonds)      0.0721      Max(Angles)    1.47
          Max(Dihed)        0.50      Max(Improp)    0.00
          -----------------------------------------------------------------

The optimization has not yet converged - more geometry cycles are needed


    ---------------------------------------------------------------------------
                         Redundant Internal Coordinates
                            (Angstroem and degrees)

        Definition                    Value    dE/dq     Step     New-Value
    ----------------------------------------------------------------------------
     1. B(C   1,C   0)                1.5158  0.084537 -0.0504    1.4654   
     2. B(C   2,C   1)                1.5366  0.089396 -0.0550    1.4816   
     3. B(C   3,C   2)                1.5772  0.110396 -0.0721    1.5051   
     4. B(C   4,C   3)                1.5239  0.087008 -0.0525    1.4714   
     5. B(C   5,C   4)                1.5234  0.085112 -0.0514    1.4719   
     6. B(C   5,C   0)                1.5622  0.105125 -0.0675    1.4948   
     7. B(H   6,C   0)                1.0320 -0.044370  0.0250    1.0570   
     8. B(H   7,C   1)                1.0320 -0.041543  0.0234    1.0554   
     9. B(H   8,C   2)                1.0320 -0.043223  0.0243    1.0563   
    10. B(H   9,C   3)                1.0320 -0.043859  0.0247    1.0567   
    11. B(H  10,C   5)                1.0320 -0.043145  0.0243    1.0563   
    12. B(H  11,C   4)                1.0320 -0.041825  0.0235    1.0556   
    13. A(C   1,C   0,H   6)          117.25 -0.011595    0.80    118.05   
    14. A(C   5,C   0,H   6)          117.25 -0.004785    0.33    117.58   
    15. A(C   1,C   0,C   5)          125.50  0.016380   -1.13    124.37   
    16. A(C   2,C   1,H   7)          123.54  0.010376   -0.71    122.83   
    17. A(C   0,C   1,H   7)          123.54  0.011166   -0.76    122.78   
    18. A(C   0,C   1,C   2)          112.92 -0.021541    1.47    114.39   
    19. A(C   3,C   2,H   8)          119.22  0.001008   -0.09    119.13   
    20. A(C   1,C   2,H   8)          119.22 -0.006940    0.46    119.68   
    21. A(C   1,C   2,C   3)          121.56  0.005932   -0.37    121.19   
    22. A(C   4,C   3,H   9)          117.86 -0.009793    0.65    118.52   
    23. A(C   2,C   3,H   9)          117.86 -0.002737    0.17    118.03   
    24. A(C   2,C   3,C   4)          124.28  0.012530   -0.83    123.45   
    25. A(C   3,C   4,C   5)          113.77 -0.019184    1.30    115.07   
    26. A(C   5,C   4,H  11)          123.12  0.008803   -0.60    122.52   
    27. A(C   3,C   4,H  11)          123.12  0.010381   -0.70    122.41   
    28. A(C   0,C   5,H  10)          119.33  0.001216   -0.08    119.25   
    29. A(C   0,C   5,C   4)          121.33  0.005398   -0.38    120.95   
    30. A(C   4,C   5,H  10)          119.33 -0.006614    0.46    119.80   
    31. D(H   7,C   1,C   0,C   5)    172.67 -0.002745    0.29    172.96   
    32. D(H   7,C   1,C   0,H   6)     -7.33 -0.001625    0.19     -7.14   
    33. D(C   2,C   1,C   0,H   6)    172.67 -0.001464    0.21    172.88   
    34. D(C   2,C   1,C   0,C   5)     -7.33 -0.002583    0.31     -7.01   
    35. D(H   8,C   2,C   1,C   0)   -175.14  0.000781   -0.14   -175.27   
    36. D(C   3,C   2,C   1,C   0)      4.86  0.001281   -0.19      4.68   
    37. D(C   3,C   2,C   1,H   7)   -175.14  0.001442   -0.17   -175.30   
    38. D(H   8,C   2,C   1,H   7)      4.86  0.000942   -0.11      4.75   
    39. D(H   9,C   3,C   2,H   8)     -4.31 -0.001546    0.16     -4.15   
    40. D(H   9,C   3,C   2,C   1)    175.69 -0.002046    0.21    175.91   
    41. D(C   4,C   3,C   2,H   8)    175.69 -0.002505    0.24    175.94   
    42. D(C   4,C   3,C   2,C   1)     -4.31 -0.003006    0.30     -4.01   
    43. D(H  11,C   4,C   3,C   2)   -174.96  0.002300   -0.23   -175.19   
    44. D(C   5,C   4,C   3,H   9)   -174.96  0.001140   -0.17   -175.12   
    45. D(C   5,C   4,C   3,C   2)      5.04  0.002099   -0.25      4.80   
    46. D(H  11,C   4,C   3,H   9)      5.04  0.001341   -0.15      4.90   
    47. D(H  10,C   5,C   4,H  11)     -7.00 -0.001131    0.15     -6.86   
    48. D(C   0,C   5,C   4,H  11)    173.00 -0.001943    0.24    173.23   
    49. D(C   0,C   5,C   4,C   3)     -7.00 -0.001742    0.25     -6.75   
    50. D(H  10,C   5,C   0,H   6)      9.02  0.002972   -0.31      8.70   
    51. D(H  10,C   5,C   0,C   1)   -170.98  0.004091   -0.42   -171.40   
    52. D(H  10,C   5,C   4,C   3)    173.00 -0.000930    0.16    173.16   
    53. D(C   4,C   5,C   0,H   6)   -170.98  0.003784   -0.40   -171.38   
    54. D(C   4,C   5,C   0,C   1)      9.02  0.004903   -0.50      8.51   
    ----------------------------------------------------------------------------

         *************************************************************
         *                GEOMETRY OPTIMIZATION CYCLE   2            *
         *************************************************************
---------------------------------
CARTESIAN COORDINATES (ANGSTROEM)
---------------------------------
  C     -3.259313    0.228273    0.078792
  C     -2.131463    1.159683   -0.009720
  C     -0.800274    0.509280   -0.020182
  C     -0.665234   -0.989456   -0.049418
  C     -1.812327   -1.908585    0.016495
  C     -3.133225   -1.259254    0.003448
  H     -4.228049    0.631500    0.205949
  H     -2.257412    2.206222   -0.062004
  H      0.072587    1.104052   -0.006144
  H      0.306024   -1.399238   -0.122403
  H     -4.007292   -1.848782   -0.061386
  H     -1.695523   -2.956315    0.069521

----------------------------
CARTESIAN COORDINATES (A.U.)
----------------------------
  NO LB      ZA    FRAG    MASS        X           Y           Z
   0 C     6.0000    0    12.011         -6.159208191465614          0.431373640885248          0.148896185447243
   1 C     6.0000    0    12.011         -4.027880538186837          2.191482519931411         -0.018368181031929
   2 C     6.0000    0    12.011         -1.512299002988380          0.962398815266744         -0.038137975336967
   3 C     6.0000    0    12.011         -1.257110753988444         -1.869800201575053         -0.093385597752787
   4 C     6.0000    0    12.011         -3.424801780837009         -3.606703350503968          0.031171666458791
   5 C     6.0000    0    12.011         -5.920936743985712         -2.379645739833898          0.006516155088218
   6 H     1.0000    0     1.008         -7.989854377918570          1.193362333455574          0.389187249483689
   7 H     1.0000    0     1.008         -4.265890692937026          4.169155416762209         -0.117170791112585
   8 H     1.0000    0     1.008          0.137169789487641          2.086356089829921         -0.011610228426290
   9 H     1.0000    0     1.008          0.578302098192477         -2.644176914902812         -0.231307752787139
  10 H     1.0000    0     1.008         -7.572685223087586         -3.493690825640180         -0.116002864383395
  11 H     1.0000    0     1.008         -3.204073193366572         -5.586624991470126          0.131375871805070

--------------------------------
INTERNAL COORDINATES (ANGSTROEM)
--------------------------------
 C      0   0   0   0.000000     0.000     0.000
 C      1   0   0   1.465402     0.000     0.000
 C      2   1   0   1.481619   114.388     0.000
 C      3   2   1   1.505091   121.190     4.675
 C      4   3   2   1.471382   123.450   355.984
 C      5   4   3   1.471928   115.065     4.797
 H      1   2   3   1.056982   118.046   172.885
 H      2   1   3   1.055387   122.780   179.977
 H      3   2   1   1.056332   119.680   184.726
 H      4   3   2   1.056689   118.032   175.905
 H      6   5   4   1.056286   119.797   173.163
 H      5   4   3   1.055553   122.413   184.816

---------------------------
INTERNAL COORDINATES (A.U.)
---------------------------
 C      0   0   0   0.000000     0.000     0.000
 C      1   0   0   2.769209     0.000     0.000
 C      2   1   0   2.799855   114.388     0.000
 C      3   2   1   2.844209   121.190     4.675
 C      4   3   2   2.780509   123.450   355.984
 C      5   4   3   2.781541   115.065     4.797
 H      1   2   3   1.997406   118.046   172.885
 H      2   1   3   1.994392   122.780   179.977
 H      3   2   1   1.996179   119.680   184.726
 H      4   3   2   1.996853   118.032   175.905
 H      6   5   4   1.996091   119.797   173.163
 H      5   4   3   1.994706   122.413   184.816



           ************************************************************
           *        Program running with 8 parallel MPI-processes     *
           *              working on a common directory               *
           ************************************************************
           ************************************************************
           *              Shut down parallel processing               *
           ************************************************************


           ************************************************************
           *        Program running with 8 parallel MPI-processes     *
           *              working on a common directory               *
           ************************************************************

Diagonalization of the overlap matrix:
Smallest eigenvalue                        ... 1.008e-03
Time for diagonalization                   ...    0.004 sec
Threshold for overlap eigenvalues          ... 1.000e-08
Number of eigenvalues below threshold      ... 0
Time for construction of square roots      ...    0.001 sec
Total time needed                          ...    0.005 sec

-------------------
DFT GRID GENERATION
-------------------

General Integration Accuracy     IntAcc      ...  4.340
Radial Grid Type                 RadialGrid  ... Gauss-Chebyshev
Angular Grid (max. acc.)         AngularGrid ... Lebedev-110
Angular grid pruning method      GridPruning ... 3 (G Style)
Weight generation scheme         WeightScheme... Becke
Basis function cutoff            BFCut       ...    1.0000e-11
Integration weight cutoff        WCut        ...    1.0000e-14
Grids for H and He will be reduced by one unit

# of grid points (after initial pruning)     ...  14700 (   0.0 sec)
# of grid points (after weights+screening)   ...  13838 (   0.0 sec)
nearest neighbour list constructed           ...    0.0 sec
Grid point re-assignment to atoms done       ...    0.0 sec
Grid point division into batches done        ...    0.0 sec
Reduced shell lists constructed in    0.0 sec

Total number of grid points                  ...    13838
Total number of batches                      ...      222
Average number of points per batch           ...       62
Average number of grid points per atom       ...     1153
Average number of shells per batch           ...    41.97 (87.43%)
Average number of basis functions per batch  ...    88.31 (91.99%)
Average number of large shells per batch     ...    37.41 (89.15%)
Average number of large basis fcns per batch ...    78.52 (88.91%)
Maximum spatial batch extension              ...   4.19,  3.75, 19.38 au
Average spatial batch extension              ...   0.26,  0.24,  0.40 au

Time for grid setup =    0.043 sec

--------------
SCF ITERATIONS
--------------
ITER       Energy         Delta-E        Max-DP      RMS-DP      [F,P]     Damp
               ***  Starting incremental Fock matrix formation  ***
  0   -232.0398565986   0.000000000000 0.00434132  0.00034139  0.0162498 0.7000
                      *** Initiating the SOSCF procedure ***
                      *** Re-Reading the Fockian *** 
                      *** Removing any level shift *** 
ITER      Energy       Delta-E        Grad      Rot      Max-DP    RMS-DP
  1   -232.04108742  -0.0012308224  0.001917  0.001917  0.012079  0.000953
               *** Restarting incremental Fock matrix formation ***
  2   -232.04385518  -0.0027677541  0.002126  0.003652  0.005322  0.000348
  3   -232.04387077  -0.0000155936  0.002314  0.002004  0.002774  0.000185
  4   -232.04397948  -0.0001087107  0.000328  0.000806  0.001142  0.000047
  5   -232.04397716   0.0000023205  0.000431  0.000437  0.000693  0.000029
  6   -232.04398129  -0.0000041314  0.000039  0.000173  0.000152  0.000006
  7   -232.04398123   0.0000000599  0.000075  0.000114  0.000098  0.000004
                  ***Gradient check signals convergence***
              ***Rediagonalizing the Fockian in SOSCF/NRSCF***

               *****************************************************
               *                     SUCCESS                       *
               *           SCF CONVERGED AFTER   8 CYCLES          *
               *****************************************************

Setting up the final grid:

General Integration Accuracy     IntAcc      ...  4.670
Radial Grid Type                 RadialGrid  ... Gauss-Chebyshev
Angular Grid (max. acc.)         AngularGrid ... Lebedev-302
Angular grid pruning method      GridPruning ... 3 (G Style)
Weight generation scheme         WeightScheme... Becke
Basis function cutoff            BFCut       ...    1.0000e-11
Integration weight cutoff        WCut        ...    1.0000e-14
Grids for H and He will be reduced by one unit

# of grid points (after initial pruning)     ...  57636 (   0.0 sec)
# of grid points (after weights+screening)   ...  53566 (   0.0 sec)
nearest neighbour list constructed           ...    0.0 sec
Grid point re-assignment to atoms done       ...    0.0 sec
Grid point division into batches done        ...    0.2 sec
Reduced shell lists constructed in    0.3 sec

Total number of grid points                  ...    53566
Total number of batches                      ...      841
Average number of points per batch           ...       63
Average number of grid points per atom       ...     4464
Average number of shells per batch           ...    41.51 (86.49%)
Average number of basis functions per batch  ...    87.40 (91.04%)
Average number of large shells per batch     ...    35.50 (85.50%)
Average number of large basis fcns per batch ...    74.37 (85.09%)
Maximum spatial batch extension              ...   4.28,  3.69, 16.88 au
Average spatial batch extension              ...   0.17,  0.16,  0.23 au

Final grid set up in    0.3 sec
Final integration                            ... done (   0.1 sec)
Change in XC energy                          ...    -0.000568572
Integrated number of electrons               ...    41.999961934
Previous integrated no of electrons          ...    42.000600644
Total Energy       :         -232.04454988 Eh           -6314.25321 eV
  Last Energy change         ...   -8.1333e-08  Tolerance :   1.0000e-08
  Last MAX-Density change    ...    6.2094e-06  Tolerance :   1.0000e-07
             **** THE GBW FILE WAS UPDATED (input.gbw) ****
             **** DENSITY FILE WAS UPDATED (input.scfp.tmp) ****
             **** ENERGY FILE WAS UPDATED (input.en.tmp) ****
Total SCF time: 0 days 0 hours 0 min 3 sec 
           ************************************************************
           *              Shut down parallel processing               *
           ************************************************************

-------------------------   --------------------
FINAL SINGLE POINT ENERGY      -232.044549883692
-------------------------   --------------------



           ************************************************************
           *        Program running with 8 parallel MPI-processes     *
           *              working on a common directory               *
           ************************************************************
------------------------------------------------------------------------------
                         ORCA SCF GRADIENT CALCULATION
------------------------------------------------------------------------------

Gradient of the Kohn-Sham DFT energy:
Kohn-Sham wavefunction type      ... RKS
Hartree-Fock exchange scaling    ...    0.200
Number of operators              ...    1
Number of atoms                  ...   12
Basis set dimensions             ...   96
Integral neglect threshold       ... 2.5e-11
Integral primitive cutoff        ... 2.5e-12

Nuclear repulsion gradient       ... done
One Electron Gradient            ... done
Pre-screening matrix             ... done
Starting the two electron gradient:
Two electron gradient done
Exchange-correlation gradient    ... done

------------------
CARTESIAN GRADIENT
------------------

   1   C   :   -0.053688606    0.032001546    0.013690937
   2   C   :   -0.021575555    0.109163538   -0.008976440
   3   C   :    0.065437708    0.051931954    0.006150012
   4   C   :    0.061029990   -0.038542278   -0.009810160
   5   C   :    0.013075454   -0.105243587    0.009427445
   6   C   :   -0.064847843   -0.049365134   -0.010413674
   7   H   :    0.022375888   -0.007113250    0.002921972
   8   H   :    0.002700444   -0.021472521   -0.003149270
   9   H   :   -0.019724088   -0.010570158    0.003203188
  10   H   :   -0.021831020    0.006901521   -0.001981226
  11   H   :    0.019911198    0.010702568   -0.004146921
  12   H   :   -0.002863571    0.021605802    0.003084136

Norm of the cartesian gradient     ...    0.223733483
RMS gradient                       ...    0.037288914
MAX gradient                       ...    0.109163538

-------
TIMINGS
-------

Total SCF gradient time            ...        1.756 sec

One electron gradient       ....       0.014 sec  (  0.8%)
Prescreening matrices       ....       0.020 sec  (  1.1%)
Two electron gradient       ....       1.059 sec  ( 60.3%)
XC gradient                 ....       0.520 sec  ( 29.6%)
           ************************************************************
           *              Shut down parallel processing               *
           ************************************************************
------------------------------------------------------------------------------
                         ORCA GEOMETRY RELAXATION STEP
------------------------------------------------------------------------------

Reading the OPT-File                    .... done
Getting information on internals        .... done
Copying old internal coords+grads       .... done
Making the new internal coordinates     .... (new redundants).... done
Validating the new internal coordinates .... (new redundants).... done
Calculating the B-matrix                .... done
Calculating the G,G- and P matrices     .... done
Transforming gradient to internals      .... done
Projecting the internal gradient        .... done
Number of atoms                         ....  12
Number of internal coordinates          ....  54
Current Energy                          ....  -232.044549884 Eh
Current gradient norm                   ....     0.223733483 Eh/bohr
Maximum allowed component of the step   ....  0.300
Current trust radius                    ....  0.300
Updating the Hessian (BFGS)             .... done
Forming the augmented Hessian           .... done
Diagonalizing the augmented Hessian     .... done
Last element of RFO vector              ....  0.890858790
Lowest eigenvalues of augmented Hessian:
 -0.085630743  0.008047172  0.008389604  0.008684751  0.009017178
Length of the computed step             ....  0.509935281
Warning: the length of the step is outside the trust region - taking restricted step instead
The input lambda is                     ....    -0.085631
   iter:   1  x=   -0.180080  g=    1.800263 f(x)=     0.170034
   iter:   2  x=   -0.267386  g=    0.725267 f(x)=     0.063320
   iter:   3  x=   -0.306008  g=    0.407480 f(x)=     0.015738
   iter:   4  x=   -0.310969  g=    0.327370 f(x)=     0.001624
   iter:   5  x=   -0.311037  g=    0.318685 f(x)=     0.000022
   iter:   6  x=   -0.311037  g=    0.318568 f(x)=     0.000000
   iter:   7  x=   -0.311037  g=    0.318568 f(x)=     0.000000
The output lambda is                    ....    -0.311037 (7 iterations)
The final length of the internal step   ....  0.300000000
Converting the step to cartesian space:
 Initial RMS(Int)=    0.0408248290
Transforming coordinates:
 Iter   0:  RMS(Cart)=    0.0613916794 RMS(Int)=    0.0408482990
 Iter   1:  RMS(Cart)=    0.0007385109 RMS(Int)=    0.0004463210
 Iter   2:  RMS(Cart)=    0.0000260622 RMS(Int)=    0.0000153203
 Iter   3:  RMS(Cart)=    0.0000007197 RMS(Int)=    0.0000004387
 Iter   4:  RMS(Cart)=    0.0000000191 RMS(Int)=    0.0000000128
done
Storing new coordinates                 .... done

                                .--------------------.
          ----------------------|Geometry convergence|---------------------
          Item                value                 Tolerance   Converged
          -----------------------------------------------------------------
          Energy change      -0.06490491            0.00000100      NO
          RMS gradient        0.02349547            0.00003000      NO
          MAX gradient        0.07975285            0.00010000      NO
          RMS step            0.04082483            0.00060000      NO
          MAX step            0.14774543            0.00100000      NO
          ....................................................
          Max(Bonds)      0.0782      Max(Angles)    2.03
          Max(Dihed)        0.87      Max(Improp)    0.00
          -----------------------------------------------------------------

The optimization has not yet converged - more geometry cycles are needed


    ---------------------------------------------------------------------------
                         Redundant Internal Coordinates
                            (Angstroem and degrees)

        Definition                    Value    dE/dq     Step     New-Value
    ----------------------------------------------------------------------------
     1. B(C   1,C   0)                1.4654  0.055391 -0.0483    1.4171   
     2. B(C   2,C   1)                1.4816  0.061180 -0.0559    1.4258   
     3. B(C   3,C   2)                1.5051  0.079753 -0.0782    1.4269   
     4. B(C   4,C   3)                1.4714  0.057957 -0.0514    1.4200   
     5. B(C   5,C   4)                1.4719  0.056788 -0.0504    1.4215   
     6. B(C   5,C   0)                1.4948  0.074423 -0.0712    1.4236   
     7. B(H   6,C   0)                1.0570 -0.022870  0.0161    1.0731   
     8. B(H   7,C   1)                1.0554 -0.021459  0.0151    1.0705   
     9. B(H   8,C   2)                1.0563 -0.022207  0.0156    1.0719   
    10. B(H   9,C   3)                1.0567 -0.022606  0.0159    1.0726   
    11. B(H  10,C   5)                1.0563 -0.022195  0.0156    1.0719   
    12. B(H  11,C   4)                1.0556 -0.021607  0.0152    1.0708   
    13. A(C   1,C   0,H   6)          118.05 -0.009047    0.98    119.02   
    14. A(C   5,C   0,H   6)          117.58 -0.005051    0.63    118.21   
    15. A(C   1,C   0,C   5)          124.37  0.014100   -1.61    122.76   
    16. A(C   2,C   1,H   7)          122.83  0.008732   -0.99    121.85   
    17. A(C   0,C   1,H   7)          122.78  0.009300   -1.04    121.74   
    18. A(C   0,C   1,C   2)          114.39 -0.018032    2.03    116.42   
    19. A(C   3,C   2,H   8)          119.13  0.000208    0.00    119.13   
    20. A(C   1,C   2,H   8)          119.68 -0.004632    0.45    120.13   
    21. A(C   1,C   2,C   3)          121.19  0.004425   -0.45    120.74   
    22. A(C   4,C   3,H   9)          118.52 -0.007311    0.76    119.28   
    23. A(C   2,C   3,H   9)          118.03 -0.003163    0.40    118.43   
    24. A(C   2,C   3,C   4)          123.45  0.010475   -1.16    122.29   
    25. A(C   3,C   4,C   5)          115.06 -0.015910    1.78    116.85   
    26. A(C   5,C   4,H  11)          122.52  0.007415   -0.84    121.68   
    27. A(C   3,C   4,H  11)          122.41  0.008495   -0.95    121.47   
    28. A(C   0,C   5,H  10)          119.26  0.000172    0.03    119.28   
    29. A(C   0,C   5,C   4)          120.95  0.004431   -0.49    120.46   
    30. A(C   4,C   5,H  10)          119.80 -0.004602    0.47    120.26   
    31. D(H   7,C   1,C   0,C   5)    172.96 -0.002808    0.52    173.48   
    32. D(H   7,C   1,C   0,H   6)     -7.14 -0.001683    0.32     -6.82   
    33. D(C   2,C   1,C   0,H   6)    172.89 -0.001746    0.38    173.27   
    34. D(C   2,C   1,C   0,C   5)     -7.01 -0.002871    0.58     -6.43   
    35. D(H   8,C   2,C   1,C   0)   -175.27  0.001095   -0.26   -175.54   
    36. D(C   3,C   2,C   1,C   0)      4.68  0.001616   -0.36      4.32   
    37. D(C   3,C   2,C   1,H   7)   -175.30  0.001552   -0.30   -175.60   
    38. D(H   8,C   2,C   1,H   7)      4.75  0.001032   -0.20      4.55   
    39. D(H   9,C   3,C   2,H   8)     -4.15 -0.001507    0.27     -3.88   
    40. D(H   9,C   3,C   2,C   1)    175.90 -0.002022    0.36    176.26   
    41. D(C   4,C   3,C   2,H   8)    175.93 -0.002385    0.40    176.34   
    42. D(C   4,C   3,C   2,C   1)     -4.02 -0.002900    0.50     -3.52   
    43. D(H  11,C   4,C   3,C   2)   -175.18  0.002248   -0.39   -175.57   
    44. D(C   5,C   4,C   3,H   9)   -175.12  0.001392   -0.31   -175.43   
    45. D(C   5,C   4,C   3,C   2)      4.80  0.002278   -0.45      4.35   
    46. D(H  11,C   4,C   3,H   9)      4.90  0.001363   -0.25      4.65   
    47. D(H  10,C   5,C   4,H  11)     -6.86 -0.001270    0.26     -6.59   
    48. D(C   0,C   5,C   4,H  11)    173.23 -0.002145    0.43    173.66   
    49. D(C   0,C   5,C   4,C   3)     -6.75 -0.002174    0.48     -6.26   
    50. D(H  10,C   5,C   0,H   6)      8.71  0.002903   -0.51      8.20   
    51. D(H  10,C   5,C   0,C   1)   -171.39  0.004020   -0.70   -172.10   
    52. D(H  10,C   5,C   4,C   3)    173.16 -0.001299    0.32    173.48   
    53. D(C   4,C   5,C   0,H   6)   -171.38  0.003770   -0.67   -172.05   
    54. D(C   4,C   5,C   0,C   1)      8.52  0.004886   -0.87      7.65   
    ----------------------------------------------------------------------------

         *************************************************************
         *                GEOMETRY OPTIMIZATION CYCLE   3            *
         *************************************************************
---------------------------------
CARTESIAN COORDINATES (ANGSTROEM)
---------------------------------
  C     -3.232167    0.198688    0.074796
  C     -2.120978    1.074383   -0.006994
  C     -0.832287    0.464507   -0.020867
  C     -0.697648   -0.955811   -0.046889
  C     -1.818687   -1.825290    0.013776
  C     -3.103614   -1.217424    0.006613
  H     -4.214102    0.613588    0.197839
  H     -2.243681    2.136652   -0.057226
  H      0.050631    1.072215   -0.009448
  H      0.287422   -1.374146   -0.118175
  H     -3.986786   -1.821732   -0.054413
  H     -1.699603   -2.888249    0.063936

----------------------------
CARTESIAN COORDINATES (A.U.)
----------------------------
  NO LB      ZA    FRAG    MASS        X           Y           Z
   0 C     6.0000    0    12.011         -6.107910549053038          0.375464977156525          0.141344894564709
   1 C     6.0000    0    12.011         -4.008067316475814          2.030289625664429         -0.013216215455854
   2 C     6.0000    0    12.011         -1.572795361048061          0.877791420011265         -0.039433060354983
   3 C     6.0000    0    12.011         -1.318363673343711         -1.806220461035304         -0.088606976629953
   4 C     6.0000    0    12.011         -3.436819996813747         -3.449299140383441          0.026033793443504
   5 C     6.0000    0    12.011         -5.864979794647835         -2.300597998034405          0.012497660621135
   6 H     1.0000    0     1.008         -7.963498049540013          1.159513716312689          0.373861128620854
   7 H     1.0000    0     1.008         -4.239942647248993          4.037686724618503         -0.108140919154567
   8 H     1.0000    0     1.008          0.095678790983839          2.026193130982057         -0.017854108297712
   9 H     1.0000    0     1.008          0.543148694280153         -2.596760230241069         -0.223319160941816
  10 H     1.0000    0     1.008         -7.533933991652448         -3.442574486898550         -0.102825572208205
  11 H     1.0000    0     1.008         -3.211784716521965         -5.458000485947629          0.120822273244805

--------------------------------
INTERNAL COORDINATES (ANGSTROEM)
--------------------------------
 C      0   0   0   0.000000     0.000     0.000
 C      1   0   0   1.417136     0.000     0.000
 C      2   1   0   1.425785   116.421     0.000
 C      3   2   1   1.426923   120.746     4.302
 C      4   3   2   1.420001   122.290   356.468
 C      5   4   3   1.421475   116.844     4.351
 H      1   2   3   1.073069   119.026   173.280
 H      2   1   3   1.070511   121.736   179.904
 H      3   2   1   1.071907   120.124   184.447
 H      4   3   2   1.072590   118.430   176.259
 H      6   5   4   1.071870   120.265   173.498
 H      5   4   3   1.070784   121.469   184.437

---------------------------
INTERNAL COORDINATES (A.U.)
---------------------------
 C      0   0   0   0.000000     0.000     0.000
 C      1   0   0   2.677998     0.000     0.000
 C      2   1   0   2.694344   116.421     0.000
 C      3   2   1   2.696493   120.746     4.302
 C      4   3   2   2.683413   122.290   356.468
 C      5   4   3   2.686198   116.844     4.351
 H      1   2   3   2.027807   119.026   173.280
 H      2   1   3   2.022973   121.736   179.904
 H      3   2   1   2.025611   120.124   184.447
 H      4   3   2   2.026901   118.430   176.259
 H      6   5   4   2.025541   120.265   173.498
 H      5   4   3   2.023489   121.469   184.437



           ************************************************************
           *        Program running with 8 parallel MPI-processes     *
           *              working on a common directory               *
           ************************************************************
           ************************************************************
           *              Shut down parallel processing               *
           ************************************************************


           ************************************************************
           *        Program running with 8 parallel MPI-processes     *
           *              working on a common directory               *
           ************************************************************

Diagonalization of the overlap matrix:
Smallest eigenvalue                        ... 6.781e-04
Time for diagonalization                   ...    0.004 sec
Threshold for overlap eigenvalues          ... 1.000e-08
Number of eigenvalues below threshold      ... 0
Time for construction of square roots      ...    0.001 sec
Total time needed                          ...    0.005 sec

-------------------
DFT GRID GENERATION
-------------------

General Integration Accuracy     IntAcc      ...  4.340
Radial Grid Type                 RadialGrid  ... Gauss-Chebyshev
Angular Grid (max. acc.)         AngularGrid ... Lebedev-110
Angular grid pruning method      GridPruning ... 3 (G Style)
Weight generation scheme         WeightScheme... Becke
Basis function cutoff            BFCut       ...    1.0000e-11
Integration weight cutoff        WCut        ...    1.0000e-14
Grids for H and He will be reduced by one unit

# of grid points (after initial pruning)     ...  14700 (   0.0 sec)
# of grid points (after weights+screening)   ...  13813 (   0.0 sec)
nearest neighbour list constructed           ...    0.0 sec
Grid point re-assignment to atoms done       ...    0.0 sec
[...]
     35      -0.516465   0.035697  -0.000255   0.009522   0.414226   0.334013
                 12         13         14         15         16         17    
      0      -0.001451  -0.001565  -0.002606   0.003511   0.001166   0.252135
      1      -0.000170   0.000324   0.000620  -0.000289   0.000072  -0.112628
      2      -0.065981  -0.055767  -0.066660   0.080209   0.057405  -0.008235
      3      -0.002243   0.000771   0.003432   0.000595  -0.001934   0.028850
      4       0.000247   0.000563  -0.000786  -0.000736   0.000196  -0.272353
      5      -0.079018   0.028380   0.101139   0.017362  -0.056264  -0.002217
      6       0.000039   0.002181  -0.001112  -0.004026   0.001845  -0.223438
      7       0.000640  -0.000576   0.000051   0.000388  -0.000365  -0.162590
      8      -0.017123   0.083493  -0.035451  -0.098474   0.058797   0.006696
      9       0.001408   0.001572  -0.002649   0.003529  -0.001229  -0.249770
     10       0.000199  -0.000309   0.000635  -0.000285  -0.000055   0.111599
     11       0.065969   0.055734  -0.066661   0.080253  -0.057407   0.008280
     12       0.002244  -0.000794   0.003426   0.000592   0.001927  -0.029096
     13      -0.000297  -0.000572  -0.000723  -0.000751  -0.000293   0.274916
     14       0.079031  -0.028405   0.101112   0.017343   0.056264   0.002096
     15       0.000000  -0.002149  -0.001071  -0.004032  -0.001754   0.221308
     16      -0.000617   0.000577   0.000077   0.000374   0.000437   0.161046
     17       0.017121  -0.083449  -0.035457  -0.098497  -0.058807  -0.006622
     18       0.013908   0.012433   0.011683  -0.010061  -0.013182   0.275753
     19      -0.002450  -0.001201   0.000503   0.006664   0.002290  -0.124636
     20       0.425249   0.378703   0.367598  -0.431248  -0.403292  -0.011151
     21       0.018270  -0.006537  -0.015063  -0.003397   0.011153   0.033272
     22      -0.002302   0.001292   0.002021  -0.000762  -0.001689  -0.298483
     23       0.545973  -0.195342  -0.555610  -0.094738   0.395739  -0.001068
     24       0.003299  -0.018138   0.006864   0.012504  -0.012406  -0.245687
     25       0.000200   0.002462  -0.001861   0.001868   0.000916  -0.177423
     26       0.098055  -0.554206   0.199659   0.536708  -0.412676   0.005593
     27      -0.013927  -0.012462   0.011637  -0.010046   0.013110  -0.273369
     28       0.002479   0.001083   0.000564   0.006629  -0.002270   0.123740
     29      -0.425119  -0.378499   0.367649  -0.431490   0.403307   0.010823
     30      -0.003241   0.018042   0.006866   0.012383   0.012361   0.243556
     31      -0.000190  -0.002422  -0.001818   0.001868  -0.000749   0.175911
     32      -0.098064   0.554042   0.199713   0.536920   0.412804  -0.005547
     33      -0.018280   0.006481  -0.015071  -0.003399  -0.011299  -0.033392
     34       0.002243  -0.001300   0.002083  -0.000783   0.001582   0.301031
     35      -0.546097   0.195473  -0.555449  -0.094668  -0.395733   0.001376
                 18         19         20         21         22         23    
      0       0.265322   0.076890   0.082125   0.012420   0.019011   0.016916
      1      -0.117423  -0.078837   0.042536   0.029244   0.046651   0.032662
      2      -0.009620  -0.003151  -0.003350  -0.000283  -0.000466  -0.000294
      3      -0.031161  -0.083542   0.013359  -0.031360  -0.056883   0.024990
      4       0.288102  -0.010273  -0.118822  -0.002926  -0.004850   0.005115
      5       0.002489   0.002135  -0.001127   0.000985   0.001624  -0.000789
      6      -0.233848   0.058782  -0.090364   0.018807   0.001536  -0.037000
      7      -0.168566   0.094331   0.024084  -0.026395  -0.007667   0.050391
      8       0.007135  -0.001641   0.003905  -0.000686  -0.000159   0.001367
      9       0.267777   0.076867   0.082129   0.012421  -0.019015  -0.016917
     10      -0.118517  -0.078823   0.042526   0.029245  -0.046659  -0.032665
     11      -0.009783  -0.003157  -0.003360  -0.000289   0.000468   0.000290
     12      -0.030868  -0.083551   0.013365  -0.031365   0.056881  -0.024987
     13       0.285431  -0.010245  -0.118828  -0.002926   0.004859  -0.005110
     14       0.002626   0.002125  -0.001100   0.000980  -0.001626   0.000782
     15      -0.236027   0.058804  -0.090367   0.018812  -0.001530   0.036999
     16      -0.170144   0.094349   0.024084  -0.026398   0.007670  -0.050391
     17       0.007072  -0.001599   0.003898  -0.000687   0.000156  -0.001368
     18       0.263753  -0.008030   0.249675   0.165461   0.186721   0.140157
     19      -0.114651  -0.288966   0.407600   0.373433   0.423122   0.310014
     20      -0.004287   0.006050   0.000232  -0.003781  -0.002821  -0.004479
     21      -0.034934  -0.542760   0.015818  -0.402628  -0.522739   0.230433
     22       0.285108  -0.059023  -0.127233  -0.042463  -0.054409   0.027162
     23       0.000327   0.016958   0.001752   0.012836   0.016586  -0.006713
     24      -0.236227  -0.070313  -0.326577   0.238749   0.033263  -0.334519
     25      -0.160884   0.285381   0.341788  -0.330024  -0.051399   0.460845
     26       0.004642   0.008630   0.004793  -0.009206   0.000337   0.012272
     27       0.266448  -0.008046   0.249658   0.165457  -0.186730  -0.140171
     28      -0.115857  -0.288922   0.407546   0.373428  -0.423149  -0.310053
     29      -0.004239   0.005942   0.000142  -0.003789   0.002854   0.004515
     30      -0.238613  -0.070294  -0.326562   0.238770  -0.033226   0.334508
     31      -0.162588   0.285396   0.341768  -0.330054   0.051363  -0.460831
     32       0.005320   0.008370   0.004732  -0.009152  -0.000326  -0.012178
     33      -0.034658  -0.542770   0.015887  -0.402655   0.522706  -0.230418
     34       0.282183  -0.059001  -0.127235  -0.042470   0.054423  -0.027159
     35      -0.000797   0.017059   0.001872   0.012871  -0.016591   0.006715
                 24         25         26         27         28         29    
      0       0.121936  -0.024438   0.086536   0.057114   0.104629  -0.159749
      1       0.272224  -0.055011  -0.033773   0.136735   0.307788  -0.000259
      2      -0.002749   0.000541  -0.002766  -0.001157  -0.002227   0.005004
      3      -0.297757  -0.060061  -0.118343   0.085632  -0.089870   0.314615
      4      -0.032453  -0.006354  -0.061994  -0.070219  -0.152204  -0.014557
      5       0.009316   0.001886   0.004027  -0.003343   0.002456  -0.010379
      6       0.174567  -0.035372  -0.041848  -0.106761  -0.037533  -0.224213
      7      -0.240189   0.048638   0.131784   0.007302   0.242491   0.141363
      8      -0.006556   0.001339   0.001908   0.003431   0.002321   0.007799
      9       0.121930   0.024445   0.086539   0.057123  -0.104620   0.159731
     10       0.272228   0.055018  -0.033773   0.136738  -0.307777   0.000238
     11      -0.002790  -0.000547  -0.002796  -0.001170   0.002255  -0.005033
     12      -0.297759   0.060056  -0.118355   0.085608   0.089862  -0.314619
     13      -0.032455   0.006346  -0.061994  -0.070220   0.152197   0.014574
     14       0.009332  -0.001885   0.004048  -0.003319  -0.002485   0.010382
     15       0.174568   0.035371  -0.041841  -0.106748   0.037533   0.224234
     16      -0.240176  -0.048635   0.131785   0.007299  -0.242493  -0.141376
     17      -0.006494  -0.001334   0.001890   0.003427  -0.002302  -0.007763
     18      -0.109599   0.164244   0.096245  -0.222140  -0.196023  -0.115445
     19      -0.248660   0.368870  -0.061824  -0.489276  -0.360351   0.140349
     20       0.002185  -0.003568  -0.007848   0.005122   0.004999   0.006775
     21       0.286140   0.399664   0.458031  -0.274271   0.147020  -0.388760
     22       0.029589   0.042278  -0.012016  -0.126107  -0.143333  -0.094744
     23      -0.008995  -0.012645  -0.016039   0.007399  -0.006124   0.011799
     24      -0.161603   0.238017   0.323365   0.067610   0.263608   0.095796
     25       0.223967  -0.328080  -0.355336  -0.264216  -0.150864  -0.319827
     26       0.006473  -0.008885  -0.013739   0.000148  -0.010648  -0.002682
     27      -0.109608  -0.164245   0.096253  -0.222126   0.196023   0.115465
     28      -0.248674  -0.368884  -0.061815  -0.489268   0.360336  -0.140272
     29       0.002332   0.003601  -0.007868   0.005177  -0.005085  -0.006835
     30      -0.161575  -0.238015   0.323380   0.067610  -0.263608  -0.095838
     31       0.223943   0.328081  -0.355350  -0.264207   0.150862   0.319911
     32       0.006302   0.008835  -0.013662   0.000130   0.010576   0.002642
     33       0.286208  -0.399666   0.458047  -0.274225  -0.147028   0.388787
     34       0.029607  -0.042292  -0.012005  -0.126106   0.143321   0.094783
     35      -0.008998   0.012660  -0.016044   0.007404   0.006073  -0.011808
                 30         31         32         33         34         35    
      0      -0.031054  -0.035761   0.025773   0.026039   0.038811  -0.035081
      1       0.013975   0.016985  -0.009708  -0.008380  -0.019167   0.015736
      2       0.001068   0.001201  -0.000894  -0.000844  -0.001334   0.001186
      3       0.003810   0.005652   0.000848   0.005245  -0.003312  -0.003630
      4      -0.035369  -0.044845  -0.024383  -0.049762  -0.000847   0.033991
      5      -0.000260  -0.000387  -0.000045  -0.000383   0.000346   0.000263
      6       0.025648  -0.001220   0.038535  -0.023080   0.035824   0.031810
      7       0.018700   0.001431   0.027872  -0.013085   0.028062   0.023199
      8      -0.000761   0.000067  -0.001121   0.000712  -0.001040  -0.000910
      9      -0.031038   0.035764  -0.025811   0.026068   0.038737   0.035123
     10       0.013969  -0.016987   0.009728  -0.008393  -0.019135  -0.015760
     11       0.001068  -0.001199   0.000896  -0.000846  -0.001332  -0.001186
     12       0.003810  -0.005654  -0.000842   0.005248  -0.003318   0.003623
     13      -0.035374   0.044853   0.024343  -0.049783  -0.000779  -0.033973
     14      -0.000260   0.000386   0.000044  -0.000380   0.000347  -0.000261
     15       0.025683   0.001221  -0.038545  -0.023087   0.035852  -0.031734
     16       0.018725  -0.001431  -0.027878  -0.013090   0.028082  -0.023141
     17      -0.000757  -0.000067   0.001114   0.000709  -0.001037   0.000901
     18       0.373829   0.424985  -0.294290  -0.281250  -0.441859   0.382405
     19      -0.166735  -0.190612   0.128942   0.120813   0.199284  -0.170396
     20      -0.012269  -0.014077   0.009676   0.008858   0.013775  -0.012970
     21      -0.044946  -0.056791  -0.027726  -0.059092   0.004131   0.039060
     22       0.424095   0.525280   0.282785   0.557172   0.006646  -0.366871
     23       0.003069   0.003898   0.001989   0.003800  -0.000330  -0.002794
     24      -0.309869   0.001668  -0.452045   0.242593  -0.412118  -0.347637
     25      -0.225279  -0.001913  -0.328204   0.170750  -0.301893  -0.252200
     26       0.008628   0.000025   0.012632  -0.006514   0.010746   0.009970
     27       0.373648  -0.425029   0.294746  -0.281584  -0.441040  -0.382886
     28      -0.166655   0.190632  -0.129149   0.120961   0.198919   0.170616
     29      -0.012249   0.014060  -0.009681   0.008854   0.013730   0.012966
     30      -0.310272  -0.001675   0.452144   0.242656  -0.412408   0.346770
     31      -0.225567   0.001910   0.328267   0.170791  -0.302100   0.251564
     32       0.008589  -0.000030  -0.012564  -0.006486   0.010692  -0.009889
     33      -0.044958   0.056811   0.027677  -0.059126   0.004208  -0.039035
     34       0.424157  -0.525378  -0.282321   0.557410   0.005910   0.366664
     35       0.003069  -0.003898  -0.001986   0.003798  -0.000333   0.002793


-----------
IR SPECTRUM
-----------

 Mode    freq (cm**-1)   T**2         TX         TY         TZ
-------------------------------------------------------------------
   6:       401.64    0.622498  ( -0.739435  -0.242807   0.129531)
   7:       412.58    0.128506  ( -0.008383   0.347387   0.088081)
   8:       620.31    0.000001  (  0.000088   0.000003  -0.000774)
   9:       620.49    0.000002  ( -0.000077   0.000025   0.001420)
  10:       676.33   82.744698  ( -0.862385   0.097277   9.054917)
  11:       713.22    0.000012  (  0.001765  -0.002197   0.001973)
  12:       850.81    0.000004  (  0.000162  -0.001972  -0.000514)
  13:       854.96    0.000013  (  0.002155   0.002814  -0.000107)
  14:       956.23    0.059250  ( -0.203706  -0.083055   0.104193)
  15:       960.45    0.218051  (  0.057971  -0.462651   0.025380)
  16:       999.36    0.000016  ( -0.001057   0.003785  -0.000666)
  17:      1017.86    0.000000  (  0.000068   0.000087   0.000088)
  18:      1018.20    0.000621  (  0.001860   0.024816   0.001224)
  19:      1067.16    3.247183  ( -1.789080  -0.172319   0.129155)
  20:      1068.03    3.222067  ( -0.130148   1.790175   0.020027)
  21:      1184.52    0.016908  (  0.080155   0.101761  -0.011309)
  22:      1205.83    0.000000  ( -0.000108  -0.000029   0.000134)
  23:      1207.15    0.000000  ( -0.000175  -0.000166   0.000290)
  24:      1357.48    0.003848  (  0.059970  -0.014758   0.005832)
  25:      1386.51    0.000000  (  0.000043   0.000088   0.000039)
  26:      1529.13    6.582994  (  2.305051  -1.120108  -0.122844)
  27:      1530.15    5.976037  ( -1.143759  -2.160074   0.043955)
  28:      1652.87    0.000000  (  0.000020   0.000011  -0.000214)
  29:      1653.56    0.000000  (  0.000151   0.000066   0.000041)
  30:      3172.05    0.162092  ( -0.388402  -0.105742   0.007400)
  31:      3180.83    0.000001  (  0.000153   0.000267  -0.001100)
  32:      3182.37    0.000007  ( -0.002274  -0.001395   0.000020)
  33:      3196.25   48.001219  (  0.748083  -6.887508  -0.061789)
  34:      3198.49   48.535312  (  6.914480   0.817459  -0.238815)
  35:      3204.82    0.000034  (  0.005269   0.002450  -0.000203)

The first frequency considered to be a vibration is 6
The total number of vibrations considered is 30


--------------------------
THERMOCHEMISTRY AT 298.15K
--------------------------

Temperature         ... 298.15 K
Pressure            ... 1.00 atm
Total Mass          ... 78.11 AMU

Throughout the following assumptions are being made:
  (1) The electronic state is orbitally nondegenerate
  (2) There are no thermally accessible electronically excited states
  (3) Hindered rotations indicated by low frequency modes) are not
      treated as such but are treated as vibrations and this may
      case some error
  (4) All equations used are the standard statistical mechanics
      equations for an ideal gas
  (5) All vibrations are strinctly harmonic


------------
INNER ENERGY
------------

The inner energy is: U= E(el) + E(ZPE) + E(vib) + E(rot) + E(trans)
    E(el)   - is the total energy from the electronic structure calculation
              = E(kin-el) + E(nuc-el) + E(el-el) + E(nuc-nuc)
    E(ZPE)  - the the zero temperature vibrational energy from the frequency calculation
    E(vib)  - the the finite temperature correction to E(ZPE) due to population
              of excietd vibrational states
    E(rot)  - is the rotational thermal energy
    E(trans)- is the translational thermal energy

Summary of contributions to the inner energy U:
Electronic energy                ...   -232.08944966 Eh
Zero point energy                ...      0.10042080 Eh      63.01 kcal/mol
Thermal vibrational correction   ...      0.00159211 Eh       1.00 kcal/mol
Thermal rotational correction    ...      0.00141627 Eh       0.89 kcal/mol
Thermal translational correction ...      0.00141627 Eh       0.89 kcal/mol
-----------------------------------------------------------------------
Total thermal energy                   -231.98460421 Eh


Summary of corrections to the electronic energy:
(perhaps to be used in another calculation)
Total thermal correction                  0.00442465 Eh       2.78 kcal/mol
Non-thermal (ZPE) correction              0.10042080 Eh      63.01 kcal/mol
-----------------------------------------------------------------------
Total correction                          0.10484545 Eh      65.79 kcal/mol


--------
ENTHALPY
--------

The enthalpy is H = U + kB*T
                kB is Boltzmann's constant
Total free energy                 ...   -231.98460421 Eh 
Thermal Enthalpy correction       ...      0.00094421 Eh       0.59 kcal/mol
-----------------------------------------------------------------------
Total Enthalpy                    ...   -231.98366000 Eh


-------
ENTROPY
-------

The entropy contributions are T*S = T*(S(el)+S(vib)+S(rot)+S(trans)
     S(el)   - electronic entropy
     S(vib)  - vibrational entropy
     S(rot)  - rotational entropy
     S(trans)- translational entropy
The entropies will be listed as mutliplied by the temperature to get
units of energy

Electronic entropy                ...      0.00000000 Eh      0.00 kcal/mol
Vibrational entropy               ...      0.00213735 Eh      1.34 kcal/mol
Rotational entropy                ...      0.01115735 Eh      7.00 kcal/mol
Translational entropy             ...      0.01852142 Eh     11.62 kcal/mol
-----------------------------------------------------------------------
Final entropy term                ...      0.03181612 Eh     19.96 kcal/mol


CAUTION: The rotational entropy is not quite correctly treated here
         because it includes a symmetry number that is not yet correctly
         implemented in ORCA!
For a nonlinear molecule the correct rotational entropy is:
    S(rot) = R*(ln(qrot/sn)+1.5)
    R    = 8.31441 J/mol/K = 1.987191683e-3 kcal/mol/K
    qrot = 90723.4103466
    sn is the rotational symmetry number. We have assumed 3 here
       if it is different for your molecule then you should correct
       the printed rotational entropy by manually evaluating the equation
       as given above

For convenience we print out the resulting values for sn=1 - 12:
 sn= 1  qrot/sn=   90723.4103 T*S(rot)=     7.65 kcal/mol T*S(tot)=    20.62 kcal/mol
 sn= 2  qrot/sn=   45361.7052 T*S(rot)=     7.24 kcal/mol T*S(tot)=    20.21 kcal/mol
 sn= 3  qrot/sn=   30241.1368 T*S(rot)=     7.00 kcal/mol T*S(tot)=    19.96 kcal/mol
 sn= 4  qrot/sn=   22680.8526 T*S(rot)=     6.83 kcal/mol T*S(tot)=    19.79 kcal/mol
 sn= 5  qrot/sn=   18144.6821 T*S(rot)=     6.70 kcal/mol T*S(tot)=    19.66 kcal/mol
 sn= 6  qrot/sn=   15120.5684 T*S(rot)=     6.59 kcal/mol T*S(tot)=    19.55 kcal/mol
 sn= 7  qrot/sn=   12960.4872 T*S(rot)=     6.50 kcal/mol T*S(tot)=    19.46 kcal/mol
 sn= 8  qrot/sn=   11340.4263 T*S(rot)=     6.42 kcal/mol T*S(tot)=    19.38 kcal/mol
 sn= 9  qrot/sn=   10080.3789 T*S(rot)=     6.35 kcal/mol T*S(tot)=    19.31 kcal/mol
 sn=10  qrot/sn=    9072.3410 T*S(rot)=     6.29 kcal/mol T*S(tot)=    19.25 kcal/mol
 sn=11  qrot/sn=    8247.5828 T*S(rot)=     6.23 kcal/mol T*S(tot)=    19.20 kcal/mol
 sn=12  qrot/sn=    7560.2842 T*S(rot)=     6.18 kcal/mol T*S(tot)=    19.14 kcal/mol


-------------------
GIBBS FREE ENTHALPY
-------------------

The Gibbs free enthalpy is G = H - T*S

Total enthalpy                    ...   -231.98366000 Eh 
Total entropy correction          ...     -0.03181612 Eh    -19.96 kcal/mol
-----------------------------------------------------------------------
Final Gibbs free enthalpy         ...   -232.01547613 Eh

For completeness - the Gibbs free enthalpy minus the electronic energy
G-E(el)                           ...      0.07397354 Eh     46.42 kcal/mol


Total Time for Numerical Frequencies  :       256.614 sec

Timings for individual modules:

Sum of individual times         ...      125.423 sec (=   2.090 min)
GTO integral calculation        ...       20.653 sec (=   0.344 min)  16.5 %
SCF iterations                  ...       64.532 sec (=   1.076 min)  51.5 %
SCF Gradient evaluation         ...       38.890 sec (=   0.648 min)  31.0 %
Geometry relaxation             ...        1.348 sec (=   0.022 min)   1.1 %
                             ****ORCA TERMINATED NORMALLY****
TOTAL RUN TIME: 0 days 0 hours 6 minutes 16 seconds 944 msec
