
                                 *****************
                                 * O   R   C   A *
                                 *****************

           --- An Ab Initio, DFT and Semiempirical electronic structure package ---

                  #######################################################
                  #                        -***-                        #
                  #  Department of molecular theory and spectroscopy    #
                  #              Directorship: Frank Neese              #
                  # Max Planck Institute for Chemical Energy Conversion #
                  #                  D-45470 Muelheim/Ruhr              #
                  #                       Germany                       #
                  #                                                     #
                  #                  All rights reserved                #
                  #                        -***-                        #
                  #######################################################


                         Program Version 3.0.1 -  RELEASE  -


 With contributions from (in alphabetic order):
   Ute Becker             : Parallelization
   Dmytro Bykov           : SCF Hessian
   Dmitry Ganyushin       : Spin-Orbit,Spin-Spin,Magnetic field MRCI
   Andreas Hansen         : Spin unrestricted coupled pair/coupled cluster methods
   Dimitrios Liakos       : Extrapolation schemes; parallel MDCI
   Robert Izsak           : Overlap fitted RIJCOSX, COSX-SCS-MP3
   Christian Kollmar      : KDIIS, OOCD, Brueckner-CCSD(T), CCSD density
   Simone Kossmann        : Meta GGA functionals, TD-DFT gradient, OOMP2, MP2 Hessian
   Taras Petrenko         : DFT Hessian,TD-DFT gradient, ASA and ECA modules, normal mode analysis, Resonance Raman, ABS, FL, XAS/XES, NRVS
   Christoph Reimann      : Effective Core Potentials
   Michael Roemelt        : Restricted open shell CIS
   Christoph Riplinger    : Improved optimizer, TS searches, QM/MM, DLPNO-CCSD
   Barbara Sandhoefer     : DKH picture change effects
   Igor Schapiro          : Molecular dynamics
   Kantharuban Sivalingam : CASSCF convergence, NEVPT2
   Boris Wezisla          : Elementary symmetry handling
   Frank Wennmohs         : Technical directorship


 We gratefully acknowledge several colleagues who have allowed us to
 interface, adapt or use parts of their codes:
   Stefan Grimme, W. Hujo, H. Kruse, T. Risthaus : VdW corrections, initial TS optimization,
                                                   DFT functionals, gCP
   Ed Valeev                                     : LibInt (2-el integral package), F12 methods
   Garnet Chan, S. Sharma, R. Olivares           : DMRG
   Ulf Ekstrom                                   : XCFun DFT Library
   Mihaly Kallay                                 : mrcc  (arbitrary order and MRCC methods)
   Andreas Klamt, Michael Diedenhofen            : otool_cosmo (COSMO solvation model)
   Frank Weinhold                                : gennbo (NPA and NBO analysis)


 Your calculation uses the libint2 library for the computation of 2-el integrals
 For citations please refer to: http://libint.valeyev.net

 This ORCA versions uses:
   CBLAS   interface :  Fast vector & matrix operations
   LAPACKE interface :  Fast linear algebra routines
   SCALAPACK package :  Parallel linear algebra routines


leaving
================================================================================
                                        WARNINGS
                       Please study these warnings very carefully!
================================================================================
Now building the actual basis set

WARNING: Direct SCF is incompatible with Method<>HF and Method<>DFT
  ===> : conventional SCF is chosen

WARNING: The NDO methods need Guess=HUECKEL or Guess=HCORE or Guess=MOREAD
  ===> : Guess is set to Hueckel

WARNING: The NDO methods need %rel::SOCType==1
  ===> : %rel::SOCType is set to 1

WARNING: The NDO methods cannot have frozencore=1
  ===> : %method FrozenCore=0 end

WARNING: Geometry Optimization
  ===> : Switching off AutoStart
         For restart on a previous wavefunction, please use MOREAD


INFO   : the flag for use of LIBINT has been found!

================================================================================
                                       INPUT FILE
================================================================================
NAME = input.dat
|  1> ! PM3 LooseOpt
|  2> 
|  3> %geom
|  4> 	Scan
|  5> 		B 5 0 = 3.0, 1.2, 15
|  6> 	end
|  7> end
|  8> 
|  9> *xyz -1 1
| 10> 	C         -1.55384       -0.43723        0.00000
| 11> 	Cl        -0.48384       -0.43723        0.00000
| 12> 	H         -1.91051       -1.20940        0.64919
| 13> 	H         -1.91051       -0.61336       -0.99331
| 14> 	H         -1.91051        0.51106        0.34413
| 15> 	F         -4.54939       -0.44897        0.08390
| 16> *
| 17> 
| 18>                          ****END OF INPUT****
================================================================================

                       ******************************
                       *    Relaxed Surface Scan    *
                       ******************************

                      Bond (  5,   0):   range=   3.00000000 ..   1.20000000  steps =   15

There is 1 parameter to be scanned
There will be   15 energy evaluations


         *************************************************************
         *               RELAXED SURFACE SCAN STEP   1               *
         *                                                           *
         *                 Bond (  5,   0)  :   3.00000000           *
         *************************************************************

Geometry optimization settings:
Update method            Update   .... BFGS
Choice of coordinates    CoordSys .... Redundant Internals
Initial Hessian          InHess   .... Almoef's Model

Convergence Tolerances:
Energy Change            TolE     ....  3.0000e-05 Eh
Max. Gradient            TolMAXG  ....  2.0000e-03 Eh/bohr
RMS Gradient             TolRMSG  ....  5.0000e-04 Eh/bohr
Max. Displacement        TolMAXD  ....  1.0000e-02 bohr
RMS Displacement         TolRMSD  ....  7.0000e-03 bohr

------------------------------------------------------------------------------
                        ORCA OPTIMIZATION COORDINATE SETUP
------------------------------------------------------------------------------

The optimization will be done in new redundant internal coordinates
Making redundant internal coordinates   ...  (new redundants) done
Evaluating the initial hessian          ...  (Almloef) done
Evaluating the coordinates              ...  done
Calculating the B-matrix                .... done
Calculating the G-matrix                .... done
Diagonalizing the G-matrix              .... done
Imposing constraints:
 Iter   0:  RMS(Cart)=    0.0006213579 RMS(Int)=    0.0032306150
 Iter   1:  RMS(Cart)=    0.0003266172 RMS(Int)=    0.0016981751
 Iter   2:  RMS(Cart)=    0.0001716866 RMS(Int)=    0.0008926469
 Iter   3:  RMS(Cart)=    0.0000902472 RMS(Int)=    0.0004692205
 Iter   4:  RMS(Cart)=    0.0000474385 RMS(Int)=    0.0002466461
 Iter   5:  RMS(Cart)=    0.0000249361 RMS(Int)=    0.0001296497
 Iter   6:  RMS(Cart)=    0.0000131077 RMS(Int)=    0.0000681504
 Iter   7:  RMS(Cart)=    0.0000068901 RMS(Int)=    0.0000358233
 Iter   8:  RMS(Cart)=    0.0000036218 RMS(Int)=    0.0000188306
 Iter   9:  RMS(Cart)=    0.0000019038 RMS(Int)=    0.0000098983
 Iter  10:  RMS(Cart)=    0.0000010007 RMS(Int)=    0.0000052030
 Iter  11:  RMS(Cart)=    0.0000005260 RMS(Int)=    0.0000027350
 Iter  12:  RMS(Cart)=    0.0000002765 RMS(Int)=    0.0000014376
 Iter  13:  RMS(Cart)=    0.0000001453 RMS(Int)=    0.0000007557
 Iter  14:  RMS(Cart)=    0.0000000764 RMS(Int)=    0.0000003972
 Iter  15:  RMS(Cart)=    0.0000000402 RMS(Int)=    0.0000002088
 Iter  16:  RMS(Cart)=    0.0000000211 RMS(Int)=    0.0000001098
 Iter  17:  RMS(Cart)=    0.0000000111 RMS(Int)=    0.0000000577
CONVERGED
The first mode is                       ....    5
The number of degrees of freedom        ....   12
Storing new coordinates                 .... done

    -----------------------------------------------------------------
                    Redundant Internal Coordinates


    -----------------------------------------------------------------
         Definition                    Initial Value    Approx d2E/dq
    -----------------------------------------------------------------
      1. B(Cl  1,C   0)                  1.0700         4.542282   
      2. B(H   2,C   0)                  1.0700         0.387549   
      3. B(H   3,C   0)                  1.0699         0.387554   
      4. B(H   4,C   0)                  1.0700         0.387558   
      5. B(F   5,H   3)                  2.8563         0.000458   
      6. B(F   5,C   0)                  3.0000         0.001421 C 
      7. B(F   5,H   2)                  2.8051         0.000553   
      8. B(F   5,H   4)                  2.8214         0.000520   
      9. A(H   2,C   0,H   3)          109.3779         0.297665   
     10. A(Cl  1,C   0,H   4)          109.5653         0.534440   
     11. A(H   2,C   0,H   4)          109.3731         0.297665   
     12. A(H   3,C   0,H   4)          109.3803         0.297666   
     13. A(H   2,C   0,F   5)           69.2346         0.155857   
     14. A(H   3,C   0,F   5)           71.9757         0.155858   
     15. A(H   4,C   0,F   5)           70.1063         0.155858   
     16. A(Cl  1,C   0,H   2)          109.5651         0.534438   
     17. A(Cl  1,C   0,H   3)          109.5652         0.534439   
    -----------------------------------------------------------------

Number of atoms                         .... 6
Number of degrees of freedom            .... 17

         *************************************************************
         *                GEOMETRY OPTIMIZATION CYCLE   1            *
         *************************************************************
---------------------------------
CARTESIAN COORDINATES (ANGSTROEM)
---------------------------------
  C     -1.552478   -0.437225   -0.000033
  Cl    -0.482478   -0.437225   -0.000034
  H     -1.910797   -1.208924    0.648803
  H     -1.910778   -0.613257   -0.992704
  H     -1.910790    0.510478    0.343934
  F     -4.551279   -0.448976    0.083944

----------------------------
CARTESIAN COORDINATES (A.U.)
----------------------------
  NO LB      ZA    FRAG    MASS        X           Y           Z
   0 C     4.0000    0    12.011         -2.933758035721615         -0.826236313851310         -0.000061809516214
   1 Cl    7.0000    0    35.453         -0.911751072425875         -0.826236402480226         -0.000063502803805
   2 H     1.0000    0     1.008         -3.610882458113695         -2.284535535629444          1.226059618659862
   3 H     1.0000    0     1.008         -3.610846902311175         -1.158886972291199         -1.875938211642101
   4 H     1.0000    0     1.008         -3.610870521300519          0.964663547575915          0.649940149663617
   5 F     7.0000    0    18.998         -8.600671363449450         -0.848442350603643          0.158630675535973

--------------------------------
INTERNAL COORDINATES (ANGSTROEM)
--------------------------------
 C      0   0   0   0.000000     0.000     0.000
 Cl     1   0   0   1.070000     0.000     0.000
 H      1   2   0   1.070004   109.471     0.000
 H      1   2   3   1.070000   109.471   240.000
 H      1   2   3   1.069997   109.471   119.999
 F      3   1   2   2.803836    89.753   178.842

---------------------------
INTERNAL COORDINATES (A.U.)
---------------------------
 C      0   0   0   0.000000     0.000     0.000
 Cl     1   0   0   2.022007     0.000     0.000
 H      1   2   0   2.022014   109.471     0.000
 H      1   2   3   2.022007   109.471   240.000
 H      1   2   3   2.022001   109.471   119.999
 F      3   1   2   5.298481    89.753   178.842

----------------------------
SLATER BASIS SET DIM=  15
----------------------------
  0 C     2 shells
 l=0 nsto= 1
    2       1.565085000000        1.000000000000
 l=1 nsto= 1
    2       1.842345000000        1.000000000000
  1 Cl    2 shells
 l=0 nsto= 1
    3       2.246210000000        1.000000000000
 l=1 nsto= 1
    3       2.151010000000        1.000000000000
  2 H     1 shells
 l=0 nsto= 1
    1       0.967807000000        1.000000000000
  3 H     1 shells
 l=0 nsto= 1
    1       0.967807000000        1.000000000000
  4 H     1 shells
 l=0 nsto= 1
    1       0.967807000000        1.000000000000
  5 F     2 shells
 l=0 nsto= 1
    2       4.708555000000        1.000000000000
 l=1 nsto= 1
    2       2.491178000000        1.000000000000
------------------------------------------------------------------------------
                           ORCA NDO INTEGRAL CALCULATION
------------------------------------------------------------------------------

--------------
NDO PARAMETERS
--------------

Gamma integral treatment              ... MOPAC
Nuclear repulsuion treatment          ... AM1-style
Interaction factors:
s-s (sigma) =    1.0000
s-p (sigma) =    1.0000
s-d (sigma) =    1.0000
p-p (sigma) =    1.0000  p-p(pi) =    1.0000
p-d (sigma) =    1.0000  p-d(pi) =    1.0000
d-d (sigma) =    1.0000  d-d(pi) =    1.0000 d-d (delta) =    1.0000

--------------------------
Parameters for Element H :
--------------------------
 One-electron parameters (in eV)
  U(s)  =   -13.073321 Beta(s) =     5.626512 Neff(s) =     1.000000
 One-center electron repulsion parameters (in eV)
  G(s,s)=    14.794208
--------------------------
Parameters for Element C :
--------------------------
 One-electron parameters (in eV)
  U(s)  =   -47.270320 Beta(s) =    11.910015 Neff(s) =     2.000000
  U(p)  =   -36.266918 Beta(p) =     9.802755 Neff(p) =     2.000000 
 One-center electron repulsion parameters (in eV)
  G(s,s)=    11.200708
  G(s,p)=    10.265027 G(p,p)  =     9.627141
 Slater-Condon parameters (in eV)
 F2(p,p)=     7.3072 G1(s,p)=    6.8729
--------------------------
Parameters for Element F :
--------------------------
 One-electron parameters (in eV)
  U(s)  =  -110.435303 Beta(s) =    48.405939 Neff(s) =     2.000000
  U(p)  =  -105.685047 Beta(p) =    27.744660 Neff(p) =     5.000000 
 One-center electron repulsion parameters (in eV)
  G(s,s)=    10.496667
  G(s,p)=    16.073689 G(p,p)  =    14.551347
 Slater-Condon parameters (in eV)
 F2(p,p)=     1.6619 G1(s,p)=    2.1833
--------------------------
Parameters for Element Cl:
--------------------------
 One-electron parameters (in eV)
  U(s)  =  -100.626747 Beta(s) =    27.528560 Neff(s) =     2.000000
  U(p)  =   -53.614396 Beta(p) =    11.593922 Neff(p) =     5.000000 
 One-center electron repulsion parameters (in eV)
  G(s,s)=    16.013601
  G(s,p)=     8.048115 G(p,p)  =     7.510174
 Slater-Condon parameters (in eV)
 F2(p,p)=     0.0753 G1(s,p)=   10.4435

 Number of atoms                    ....    6
 Number of basis functions          ....   15

 Overlap integrals                  .... done
 One electron matrix                .... done
 Nuclear repulsion                  .... done
 Integral list                      .... done
 Electron-electron repulsion        .... done
-------------------------------------------------------------------------------
                                 ORCA SCF
-------------------------------------------------------------------------------

------------
SCF SETTINGS
------------
Hamiltonian:
 ZDO-Hamiltonian        Method          .... NDDO


General Settings:
 Integral files         IntName         .... input
 Hartree-Fock type      HFTyp           .... RHF
 Total Charge           Charge          ....   -1
 Multiplicity           Mult            ....    1
 Number of Electrons    NEL             ....   22
 Basis Dimension        Dim             ....   15
 Nuclear Repulsion      ENuc            ....     36.0321537874 Eh

Convergence Acceleration:
 DIIS                   CNVDIIS         .... on
   Start iteration      DIISMaxIt       ....    12
   Startup error        DIISStart       ....  0.200000
   # of expansion vecs  DIISMaxEq       ....     5
   Bias factor          DIISBfac        ....   1.050
   Max. coefficient     DIISMaxC        ....  10.000
 Newton-Raphson         CNVNR           .... off
 SOSCF                  CNVSOSCF        .... on
   Start iteration      SOSCFMaxIt      ....   150
   Startup grad/error   SOSCFStart      ....  0.003300
 Level Shifting         CNVShift        .... on
   Level shift para.    LevelShift      ....    0.2500
   Turn off err/grad.   ShiftErr        ....    0.0010
 Zerner damping         CNVZerner       .... off
 Static damping         CNVDamp         .... on
   Fraction old density DampFac         ....    0.7000
   Max. Damping (<1)    DampMax         ....    0.9800
   Min. Damping (>=0)   DampMin         ....    0.0000
   Turn off err/grad.   DampErr         ....    0.1000
 Fernandez-Rico         CNVRico         .... off

SCF Procedure:
 Maximum # iterations   MaxIter         ....   125
 SCF integral mode      SCFMode         .... Conventional
 Integral Buffer length BufferLength    .... 1048576
 Integral index format  IndFormat       ....     0
 Integral value format  ValFormat       ....     0
 Integral Storage       Thresh          ....  2.500e-11 Eh

Convergence Tolerance:
 Convergence Check Mode ConvCheckMode   .... Total+1el-Energy
 Energy Change          TolE            ....  1.000e-08 Eh
 1-El. energy change                    ....  1.000e-05 Eh
 Orbital Gradient       TolG            ....  1.000e-05
 Orbital Rotation angle TolX            ....  1.000e-05
 DIIS Error             TolErr          ....  5.000e-07


Diagonalization of the overlap matrix:
Smallest eigenvalue                        ... 5.035e-02
Time for diagonalization                   ...    0.082 sec
Threshold for overlap eigenvalues          ... 1.000e-08
Number of eigenvalues below threshold      ... 0
Time for construction of square roots      ...    0.043 sec
Total time needed                          ...    0.125 sec

-------------------------------
INITIAL GUESS: EXTENDED HUECKEL
-------------------------------
EHT matrix was read from disk
EHT matrix was diagonalized
Initial density was built
                      ------------------
                      INITIAL GUESS DONE
                      ------------------

 InCore treatment chosen:
   Memory dedicated               ...    1024 MB
   Memory needed                  ...      0 MB
   Number of tiny    integrals    ...      24
   Number of small   integrals    ...      63
   Number of regular integrals    ...     338

--------------
SCF ITERATIONS
--------------
ITER       Energy         Delta-E        Max-DP      RMS-DP      [F,P]     Damp
  0    -32.7871304425   0.000000000000 0.09630147  0.01196492  0.7758731 0.7000
  1    -32.8746345046  -0.087504062090 0.07838167  0.01081665  0.5918882 0.7000
  2    -32.9437950126  -0.069160507962 0.05829831  0.00867134  0.4375460 0.7000
  3    -32.9962671242  -0.052472111560 0.04324687  0.00684547  0.3222254 0.7000
  4    -33.0355192831  -0.039252158943 0.03331060  0.00543482  0.2373715 0.7000
                               ***Turning on DIIS***
  5    -33.0646119452  -0.029092662136 0.02558989  0.00436480  0.1750272 0.7000
  6    -33.0754685490  -0.010856603802 0.02160902  0.00410317  0.1291894 0.7000
  7    -33.0884220555  -0.012953506438 0.05794283  0.01245567  0.0930932 0.0000
  8    -33.1417178927  -0.053295837215 0.01656883  0.00295357  0.0099962 0.0000
  9    -33.1403907951   0.001327097590 0.01881686  0.00320371  0.0070432 0.0000
 10    -33.1424865991  -0.002095803967 0.01191010  0.00200121  0.0036563 0.0000
                      *** Initiating the SOSCF procedure ***
                           *** Shutting down DIIS ***
                      *** Re-Reading the Fockian *** 
                      *** Removing any level shift *** 
ITER      Energy       Delta-E        Grad      Rot      Max-DP    RMS-DP
 11    -33.14406392  -0.0015773167  0.002543  0.002543  0.004700  0.000802
 12    -33.14465388  -0.0005899641  0.000449  0.000885  0.001046  0.000204
 13    -33.14465683  -0.0000029463  0.000249  0.001224  0.001464  0.000295
 14    -33.14465850  -0.0000016714  0.000083  0.000169  0.000263  0.000031
 15    -33.14465856  -0.0000000651  0.000047  0.000162  0.000265  0.000028
 16    -33.14465859  -0.0000000253  0.000013  0.000036  0.000076  0.000009
 17    -33.14465859  -0.0000000031  0.000008  0.000023  0.000055  0.000007
                 **** Energy Check signals convergence ****
              ***Rediagonalizing the Fockian in SOSCF/NRSCF***

               *****************************************************
               *                     SUCCESS                       *
               *           SCF CONVERGED AFTER  18 CYCLES          *
               *****************************************************


----------------
TOTAL SCF ENERGY
----------------

Total Energy       :          -33.14465859 Eh            -901.91201 eV

Components:
Nuclear Repulsion  :           36.03215379 Eh             980.48475 eV
Electronic Energy  :          -69.17681238 Eh           -1882.39676 eV

One Electron Energy:         -127.66282102 Eh           -3473.88197 eV
Two Electron Energy:           58.48600864 Eh            1591.48520 eV


---------------
SCF CONVERGENCE
---------------

  Last Energy change         ...   -1.0957e-09  Tolerance :   1.0000e-08
  Last MAX-Density change    ...    4.9609e-06  Tolerance :   1.0000e-07
  Last RMS-Density change    ...    9.1148e-07  Tolerance :   5.0000e-09
  Last Orbital Gradient      ...    9.2111e-07  Tolerance :   1.0000e-05
  Last Orbital Rotation      ...    3.7681e-06  Tolerance :   1.0000e-05

             **** THE GBW FILE WAS UPDATED (input.gbw) ****
             **** DENSITY FILE WAS UPDATED (input.scfp.tmp) ****
             **** ENERGY FILE WAS UPDATED (input.en.tmp) ****
----------------
ORBITAL ENERGIES
----------------

  NO   OCC          E(Eh)            E(eV) 
   0   2.0000      -2.232584       -60.7517 
   1   2.0000      -0.791240       -21.5307 
   2   2.0000      -0.524009       -14.2590 
   3   2.0000      -0.523768       -14.2525 
   4   2.0000      -0.397907       -10.8276 
   5   2.0000      -0.212803        -5.7907 
   6   2.0000      -0.206081        -5.6078 
   7   2.0000      -0.205688        -5.5970 
   8   2.0000      -0.084047        -2.2870 
   9   2.0000      -0.084024        -2.2864 
  10   2.0000      -0.083249        -2.2653 
  11   0.0000       0.263225         7.1627 
  12   0.0000       0.302039         8.2189 
  13   0.0000       0.302577         8.2335 
  14   0.0000       0.323106         8.7922 

                    ********************************
                    * MULLIKEN POPULATION ANALYSIS *
                    ********************************

-----------------------
MULLIKEN ATOMIC CHARGES
-----------------------
   0 C :    0.353278
   1 Cl:   -0.340455
   2 H :   -0.002930
   3 H :   -0.010605
   4 H :   -0.005409
   5 F :   -0.993879
Sum of atomic charges:   -1.0000000

--------------------------------
MULLIKEN REDUCED ORBITAL CHARGES
--------------------------------
  0 C s       :     1.472759  s :     1.472759
      pz      :     0.877470  p :     2.173964
      px      :     0.415409
      py      :     0.881085
  1 Cls       :     2.670464  s :     2.670464
      pz      :     1.913267  p :     4.669990
      px      :     0.842609
      py      :     1.914115
  2 H s       :     1.002930  s :     1.002930
  3 H s       :     1.010605  s :     1.010605
  4 H s       :     1.005409  s :     1.005409
  5 F s       :     1.998655  s :     1.998655
      pz      :     1.999587  p :     5.995224
      px      :     1.996107
      py      :     1.999531


                     *******************************
                     * LOEWDIN POPULATION ANALYSIS *
                     *******************************

----------------------
LOEWDIN ATOMIC CHARGES
----------------------
   0 C :    0.270297
   1 Cl:    0.003554
   2 H :   -0.090405
   3 H :   -0.096592
   4 H :   -0.092401
   5 F :   -0.994453

-------------------------------
LOEWDIN REDUCED ORBITAL CHARGES
-------------------------------
  0 C s       :     1.023650  s :     1.023650
      pz      :     0.934608  p :     2.706053
      px      :     0.833802
      py      :     0.937643
  1 Cls       :     1.919727  s :     1.919727
      pz      :     1.908305  p :     5.076719
      px      :     1.259204
      py      :     1.909210
  2 H s       :     1.090405  s :     1.090405
  3 H s       :     1.096592  s :     1.096592
  4 H s       :     1.092401  s :     1.092401
  5 F s       :     1.998802  s :     1.998802
      pz      :     1.999622  p :     5.995651
      px      :     1.996458
      py      :     1.999571


                      *****************************
                      * MAYER POPULATION ANALYSIS *
                      *****************************

  NA   - Mulliken gross atomic population
  ZA   - Total nuclear charge
  QA   - Mulliken gross atomic charge
  VA   - Mayer's total valence
  BVA  - Mayer's bonded valence
  FA   - Mayer's free valence

  ATOM       NA         ZA         QA         VA         BVA        FA
  0 C      3.6467     4.0000     0.3533     3.2833     3.2833    -0.0000
  1 Cl     7.3405     7.0000    -0.3405     1.0582     1.0582    -0.0000
  2 H      1.0029     1.0000    -0.0029     1.0000     1.0000     0.0000
  3 H      1.0106     1.0000    -0.0106     0.9999     0.9999    -0.0000
  4 H      1.0054     1.0000    -0.0054     1.0000     1.0000    -0.0000
  5 F      7.9939     7.0000    -0.9939     0.0122     0.0122     0.0000

  Mayer bond orders larger than 0.1
B(  0-C ,  1-Cl) :   0.7941 B(  0-C ,  2-H ) :   0.8289 B(  0-C ,  3-H ) :   0.8282 
B(  0-C ,  4-H ) :   0.8287 

-------
TIMINGS
-------

Total SCF time: 0 days 0 hours 0 min 0 sec 

Total time                  ....       0.124 sec
Sum of individual times     ....       0.106 sec  ( 85.5%)

Fock matrix formation       ....       0.069 sec  ( 55.6%)
Diagonalization             ....       0.002 sec  (  1.5%)
Density matrix formation    ....       0.000 sec  (  0.1%)
Population analysis         ....       0.001 sec  (  1.1%)
Initial guess               ....       0.000 sec  (  0.2%)
Orbital Transformation      ....       0.000 sec  (  0.0%)
Orbital Orthonormalization  ....       0.000 sec  (  0.0%)
DIIS solution               ....       0.031 sec  ( 24.8%)
SOSCF solution              ....       0.003 sec  (  2.2%)

-------------------------   --------------------
FINAL SINGLE POINT ENERGY       -33.144658592189
-------------------------   --------------------

------------------------------------------------------------------------------
                          SCF GRADIENT FOR NDO METHODS
------------------------------------------------------------------------------

The cartesian gradient:
   1   C   :    1.813774594    0.000072072   -0.000451011
   2   Cl  :   -1.973887082   -0.000017908    0.000127300
   3   H   :    0.053753662    0.030104252   -0.025214453
   4   H   :    0.053567113    0.006855357    0.038880660
   5   H   :    0.053695247   -0.037017656   -0.013315322
   6   F   :   -0.000903534    0.000003884   -0.000027174

Norm of the cartesian gradient     ...    2.683151123
RMS gradient                       ...    0.632424785
MAX gradient                       ...    1.973887082
------------------------------------------------------------------------------
                         ORCA GEOMETRY RELAXATION STEP
------------------------------------------------------------------------------

Reading the OPT-File                    .... done
Getting information on internals        .... done
Copying old internal coords+grads       .... done
Making the new internal coordinates     .... (new redundants).... done
Validating the new internal coordinates .... (new redundants).... done
Calculating the B-matrix                .... done
Calculating the G,G- and P matrices     .... done
Transforming gradient to internals      .... done
Projecting the internal gradient        .... done
Number of atoms                         ....   6
Number of internal coordinates          ....  17
Current Energy                          ....   -33.144658592 Eh
Current gradient norm                   ....     2.683151123 Eh/bohr
Maximum allowed component of the step   ....  0.300
Current trust radius                    ....  0.300
Evaluating the initial hessian          ....  (Almloef) done
Projecting the Hessian                  .... done
Forming the augmented Hessian           .... done
Diagonalizing the augmented Hessian     .... done
Last element of RFO vector              ....  0.932723941
Lowest eigenvalues of augmented Hessian:
 -0.747429414  0.031018606  0.031030003  0.142000940  0.297677496
Length of the computed step             ....  0.386600187
Warning: the length of the step is outside the trust region - taking restricted step instead
The input lambda is                     ....    -0.747429
   iter:   1  x=   -1.572123  g=    0.072099 f(x)=     0.059460
   iter:   2  x=   -2.037317  g=    0.037501 f(x)=     0.017445
   iter:   3  x=   -2.108813  g=    0.029120 f(x)=     0.002082
   iter:   4  x=   -2.110128  g=    0.028096 f(x)=     0.000037
   iter:   5  x=   -2.110128  g=    0.028078 f(x)=     0.000000
   iter:   6  x=   -2.110128  g=    0.028078 f(x)=     0.000000
   iter:   7  x=   -2.110128  g=    0.028078 f(x)=     0.000000
The output lambda is                    ....    -2.110128 (7 iterations)
The final length of the internal step   ....  0.300000000
Converting the step to cartesian space:
 Initial RMS(Int)=    0.0727606875
Transforming coordinates:
 Iter   0:  RMS(Cart)=    0.0459684229 RMS(Int)=    0.0496785537
 Iter   1:  RMS(Cart)=    0.0208197431 RMS(Int)=    0.0234574865
 Iter   2:  RMS(Cart)=    0.0000081062 RMS(Int)=    0.0000055565
 Iter   3:  RMS(Cart)=    0.0000008517 RMS(Int)=    0.0000006248
 Iter   4:  RMS(Cart)=    0.0000000917 RMS(Int)=    0.0000000675
Imposing constraints:
 Iter   0:  RMS(Cart)=    0.0000025333 RMS(Int)=    0.0000131958
 Iter   1:  RMS(Cart)=    0.0000013327 RMS(Int)=    0.0000069418
 Iter   2:  RMS(Cart)=    0.0000007011 RMS(Int)=    0.0000036518
 Iter   3:  RMS(Cart)=    0.0000003688 RMS(Int)=    0.0000019211
 Iter   4:  RMS(Cart)=    0.0000001940 RMS(Int)=    0.0000010106
 Iter   5:  RMS(Cart)=    0.0000001021 RMS(Int)=    0.0000005317
 Iter   6:  RMS(Cart)=    0.0000000537 RMS(Int)=    0.0000002797
 Iter   7:  RMS(Cart)=    0.0000000282 RMS(Int)=    0.0000001471
 Iter   8:  RMS(Cart)=    0.0000000149 RMS(Int)=    0.0000000774
CONVERGED
done
Storing new coordinates                 .... done

                                .--------------------.
          ----------------------|Geometry convergence|---------------------
          Item                value                 Tolerance   Converged
          -----------------------------------------------------------------
          RMS gradient        0.47945491            0.00050000      NO
          MAX gradient        1.97388707            0.00200000      NO
          RMS step            0.07276069            0.00700000      NO
          MAX step            0.29671759            0.01000000      NO
          ....................................................
          Max(Bonds)      0.1570      Max(Angles)    0.30
          Max(Dihed)        0.00      Max(Improp)    0.00
          -----------------------------------------------------------------

The optimization has not yet converged - more geometry cycles are needed


    ---------------------------------------------------------------------------
                         Redundant Internal Coordinates
                            (Angstroem and degrees)

        Definition                    Value    dE/dq     Step     New-Value
    ----------------------------------------------------------------------------
     1. B(Cl  1,C   0)                1.0700 -1.973887  0.1570    1.2270   
     2. B(H   2,C   0)                1.0700 -0.055026  0.0117    1.0817   
     3. B(H   3,C   0)                1.0699 -0.055616  0.0119    1.0818   
     4. B(H   4,C   0)                1.0700 -0.055228  0.0117    1.0817   
     5. B(F   5,H   3)                2.8563  0.009601 -0.0048    2.8515   
     6. B(F   5,C   0)                3.0000 -0.027461  0.0000    3.0000 C 
     7. B(F   5,H   2)                2.8051  0.010522 -0.0050    2.8001   
     8. B(F   5,H   4)                2.8214  0.010236 -0.0050    2.8164   
     9. A(H   2,C   0,H   3)          109.38  0.018609   -0.29    109.09   
    10. A(Cl  1,C   0,H   4)          109.57 -0.018382    0.28    109.85   
    11. A(H   2,C   0,H   4)          109.37  0.017518   -0.25    109.12   
    12. A(H   3,C   0,H   4)          109.38  0.019107   -0.30    109.08   
    13. A(H   2,C   0,F   5)           69.23  0.017954   -0.27     68.96   
    14. A(H   3,C   0,F   5)           71.98  0.018827   -0.29     71.69   
    15. A(H   4,C   0,F   5)           70.11  0.018229   -0.28     69.83   
    16. A(Cl  1,C   0,H   2)          109.57 -0.018476    0.28    109.85   
    17. A(Cl  1,C   0,H   3)          109.57 -0.018185    0.28    109.84   
    ----------------------------------------------------------------------------

         *************************************************************
         *                GEOMETRY OPTIMIZATION CYCLE   2            *
         *************************************************************
---------------------------------
CARTESIAN COORDINATES (ANGSTROEM)
---------------------------------
  C     -1.574205   -0.437239    0.000060
  Cl    -0.347189   -0.437179   -0.000346
  H     -1.941173   -1.216161    0.654742
  H     -1.941693   -0.614824   -1.001812
  H     -1.941342    0.519297    0.346966
  F     -4.572999   -0.449023    0.084300

----------------------------
CARTESIAN COORDINATES (A.U.)
----------------------------
  NO LB      ZA    FRAG    MASS        X           Y           Z
   0 C     4.0000    0    12.011         -2.974815698475234         -0.826262775489624          0.000114006221686
   1 Cl    7.0000    0    35.453         -0.656091278341109         -0.826148717161568         -0.000653934665288
   2 H     1.0000    0     1.008         -3.668284520950379         -2.298211875615307          1.237283506833754
   3 H     1.0000    0     1.008         -3.669268754581024         -1.161849061700905         -1.893150725940932
   4 H     1.0000    0     1.008         -3.668605113346237          0.981328757390336          0.655670833770937
   5 F     7.0000    0    18.998         -8.641714987628346         -0.848530354702839          0.159303233677176

--------------------------------
INTERNAL COORDINATES (ANGSTROEM)
--------------------------------
 C      0   0   0   0.000000     0.000     0.000
 Cl     1   0   0   1.227016     0.000     0.000
 H      1   2   0   1.081662   109.846     0.000
 H      1   2   3   1.081819   109.840   240.007
 H      1   2   3   1.081709   109.844   120.030
 F      3   1   2   2.800074    89.902   178.849

---------------------------
INTERNAL COORDINATES (A.U.)
---------------------------
 C      0   0   0   0.000000     0.000     0.000
 Cl     1   0   0   2.318725     0.000     0.000
 H      1   2   0   2.044045   109.846     0.000
 H      1   2   3   2.044342   109.840   240.007
 H      1   2   3   2.044134   109.844   120.030
 F      3   1   2   5.291373    89.902   178.849

------------------------------------------------------------------------------
                           ORCA NDO INTEGRAL CALCULATION
------------------------------------------------------------------------------

--------------
NDO PARAMETERS
--------------

Gamma integral treatment              ... MOPAC
Nuclear repulsuion treatment          ... AM1-style
Interaction factors:
s-s (sigma) =    1.0000
s-p (sigma) =    1.0000
s-d (sigma) =    1.0000
p-p (sigma) =    1.0000  p-p(pi) =    1.0000
p-d (sigma) =    1.0000  p-d(pi) =    1.0000
d-d (sigma) =    1.0000  d-d(pi) =    1.0000 d-d (delta) =    1.0000

--------------------------
Parameters for Element H :
--------------------------
 One-electron parameters (in eV)
  U(s)  =   -13.073321 Beta(s) =     5.626512 Neff(s) =     1.000000
 One-center electron repulsion parameters (in eV)
  G(s,s)=    14.794208
--------------------------
Parameters for Element C :
--------------------------
 One-electron parameters (in eV)
  U(s)  =   -47.270320 Beta(s) =    11.910015 Neff(s) =     2.000000
  U(p)  =   -36.266918 Beta(p) =     9.802755 Neff(p) =     2.000000 
 One-center electron repulsion parameters (in eV)
  G(s,s)=    11.200708
  G(s,p)=    10.265027 G(p,p)  =     9.627141
 Slater-Condon parameters (in eV)
 F2(p,p)=     7.3072 G1(s,p)=    6.8729
--------------------------
Parameters for Element F :
--------------------------
 One-electron parameters (in eV)
  U(s)  =  -110.435303 Beta(s) =    48.405939 Neff(s) =     2.000000
  U(p)  =  -105.685047 Beta(p) =    27.744660 Neff(p) =     5.000000 
 One-center electron repulsion parameters (in eV)
  G(s,s)=    10.496667
  G(s,p)=    16.073689 G(p,p)  =    14.551347
 Slater-Condon parameters (in eV)
 F2(p,p)=     1.6619 G1(s,p)=    2.1833
--------------------------
Parameters for Element Cl:
--------------------------
 One-electron parameters (in eV)
  U(s)  =  -100.626747 Beta(s) =    27.528560 Neff(s) =     2.000000
  U(p)  =   -53.614396 Beta(p) =    11.593922 Neff(p) =     5.000000 
 One-center electron repulsion parameters (in eV)
  G(s,s)=    16.013601
  G(s,p)=     8.048115 G(p,p)  =     7.510174
 Slater-Condon parameters (in eV)
 F2(p,p)=     0.0753 G1(s,p)=   10.4435

 Number of atoms                    ....    6
 Number of basis functions          ....   15

 Overlap integrals                  .... done
 One electron matrix                .... done
 Nuclear repulsion                  .... done
 Integral list                      .... done
 Electron-electron repulsion        .... done

Diagonalization of the overlap matrix:
Smallest eigenvalue                        ... 9.674e-02
Time for diagonalization                   ...    0.000 sec
Threshold for overlap eigenvalues          ... 1.000e-08
Number of eigenvalues below threshold      ... 0
Time for construction of square roots      ...    0.000 sec
Total time needed                          ...    0.000 sec


 InCore treatment chosen:
   Memory dedicated               ...    1024 MB
   Memory needed                  ...      0 MB
   Number of tiny    integrals    ...      16
   Number of small   integrals    ...      55
   Number of regular integrals    ...     371

--------------
SCF ITERATIONS
--------------
ITER       Energy         Delta-E        Max-DP      RMS-DP      [F,P]     Damp
  0    -33.5614857642   0.000000000000 0.01012975  0.00203665  0.0457011 0.7000
  1    -33.5633609660  -0.001875201793 0.01124816  0.00213763  0.0353041 0.7000
                               ***Turning on DIIS***
  2    -33.5650533410  -0.001692375068 0.03425731  0.00631249  0.0263527 0.0000
  3    -33.5671499916  -0.002096650620 0.01794180  0.00320406  0.0092560 0.0000
  4    -33.5696958742  -0.002545882557 0.01196116  0.00219890  0.0049303 0.0000
  5    -33.5709036166  -0.001207742388 0.00850918  0.00149625  0.0030505 0.0000
                      *** Initiating the SOSCF procedure ***
                           *** Shutting down DIIS ***
                      *** Re-Reading the Fockian *** 
                      *** Removing any level shift *** 
ITER      Energy       Delta-E        Grad      Rot      Max-DP    RMS-DP
  6    -33.57137813  -0.0004745178  0.002289  0.002289  0.004123  0.000717
  7    -33.57180050  -0.0004223675  0.000430  0.000826  0.001175  0.000193
  8    -33.57180295  -0.0000024520  0.000229  0.000995  0.001463  0.000242
  9    -33.57180407  -0.0000011119  0.000048  0.000072  0.000132  0.000017
 10    -33.57180408  -0.0000000185  0.000021  0.000050  0.000095  0.000010
 11    -33.57180409  -0.0000000040  0.000004  0.000007  0.000017  0.000002
 12    -33.57180409  -0.0000000002  0.000003  0.000008  0.000015  0.000002
                 **** Energy Check signals convergence ****
              ***Rediagonalizing the Fockian in SOSCF/NRSCF***

               *****************************************************
               *                     SUCCESS                       *
               *           SCF CONVERGED AFTER  13 CYCLES          *
               *****************************************************

Total Energy       :          -33.57180409 Eh            -913.53523 eV
  Last Energy change         ...   -7.8799e-11  Tolerance :   1.0000e-08
  Last MAX-Density change    ...    1.3855e-06  Tolerance :   1.0000e-07
             **** THE GBW FILE WAS UPDATED (input.gbw) ****
             **** DENSITY FILE WAS UPDATED (input.scfp.tmp) ****
             **** ENERGY FILE WAS UPDATED (input.en.tmp) ****
Total SCF time: 0 days 0 hours 0 min 0 sec 

-------------------------   --------------------
FINAL SINGLE POINT ENERGY       -33.571804088548
-------------------------   --------------------

------------------------------------------------------------------------------
                          SCF GRADIENT FOR NDO METHODS
------------------------------------------------------------------------------

The cartesian gradient:
   1   C   :    0.874855058    0.000056753   -0.000343804
   2   Cl  :   -0.962625695   -0.000058828    0.000396436
   3   H   :    0.030124500    0.013369110   -0.011256274
   4   H   :    0.029814339    0.003043488    0.017161483
   5   H   :    0.030024691   -0.016409468   -0.005968737
   6   F   :   -0.002192893   -0.000001054    0.000010895

Norm of the cartesian gradient     ...    1.302166144
RMS gradient                       ...    0.306923504
MAX gradient                       ...    0.962625695
------------------------------------------------------------------------------
                         ORCA GEOMETRY RELAXATION STEP
------------------------------------------------------------------------------

Reading the OPT-File                    .... done
Getting information on internals        .... done
Copying old internal coords+grads       .... done
Making the new internal coordinates     .... (new redundants).... done
Validating the new internal coordinates .... (new redundants).... done
Calculating the B-matrix                .... done
Calculating the G,G- and P matrices     .... done
Transforming gradient to internals      .... done
Projecting the internal gradient        .... done
Number of atoms                         ....   6
Number of internal coordinates          ....  17
Current Energy                          ....   -33.571804089 Eh
Current gradient norm                   ....     1.302166144 Eh/bohr
Maximum allowed component of the step   ....  0.300
Current trust radius                    ....  0.300
Updating the Hessian (BFGS)             .... done
Forming the augmented Hessian           .... done
Diagonalizing the augmented Hessian     .... done
Last element of RFO vector              ....  0.966268045
Lowest eigenvalues of augmented Hessian:
 -0.255212999  0.031018596  0.031029990  0.140493991  0.297677491
Length of the computed step             ....  0.266529018
The final length of the internal step   ....  0.266529018
Converting the step to cartesian space:
 Initial RMS(Int)=    0.0646427820
Transforming coordinates:
 Iter   0:  RMS(Cart)=    0.0460665163 RMS(Int)=    0.0496875129
 Iter   1:  RMS(Cart)=    0.0135181894 RMS(Int)=    0.0152323262
 Iter   2:  RMS(Cart)=    0.0000038193 RMS(Int)=    0.0000023921
 Iter   3:  RMS(Cart)=    0.0000003022 RMS(Int)=    0.0000002052
 Iter   4:  RMS(Cart)=    0.0000000248 RMS(Int)=    0.0000000170
Imposing constraints:
 Iter   0:  RMS(Cart)=    0.0000081819 RMS(Int)=    0.0000420050
 Iter   1:  RMS(Cart)=    0.0000042799 RMS(Int)=    0.0000219725
 Iter   2:  RMS(Cart)=    0.0000022388 RMS(Int)=    0.0000114936
 Iter   3:  RMS(Cart)=    0.0000011711 RMS(Int)=    0.0000060122
 Iter   4:  RMS(Cart)=    0.0000006126 RMS(Int)=    0.0000031449
 Iter   5:  RMS(Cart)=    0.0000003204 RMS(Int)=    0.0000016451
 Iter   6:  RMS(Cart)=    0.0000001676 RMS(Int)=    0.0000008605
 Iter   7:  RMS(Cart)=    0.0000000877 RMS(Int)=    0.0000004501
 Iter   8:  RMS(Cart)=    0.0000000459 RMS(Int)=    0.0000002355
 Iter   9:  RMS(Cart)=    0.0000000240 RMS(Int)=    0.0000001232
 Iter  10:  RMS(Cart)=    0.0000000125 RMS(Int)=    0.0000000644
CONVERGED
done
Storing new coordinates                 .... done

                                .--------------------.
          ----------------------|Geometry convergence|---------------------
          Item                value                 Tolerance   Converged
          -----------------------------------------------------------------
          Energy change      -0.42714550            0.00003000      NO
          RMS gradient        0.23385284            0.00050000      NO
          MAX gradient        0.96262577            0.00200000      NO
          RMS step            0.06464278            0.00700000      NO
          MAX step            0.26280432            0.01000000      NO
          ....................................................
          Max(Bonds)      0.1391      Max(Angles)    0.48
          Max(Dihed)        0.00      Max(Improp)    0.00
          -----------------------------------------------------------------

The optimization has not yet converged - more geometry cycles are needed


    ---------------------------------------------------------------------------
                         Redundant Internal Coordinates
                            (Angstroem and degrees)

        Definition                    Value    dE/dq     Step     New-Value
    ----------------------------------------------------------------------------
     1. B(Cl  1,C   0)                1.2270 -0.962626  0.1391    1.3661   
     2. B(H   2,C   0)                1.0817 -0.026672  0.0075    1.0892   
     3. B(H   3,C   0)                1.0818 -0.026821  0.0075    1.0893   
     4. B(H   4,C   0)                1.0817 -0.026725  0.0075    1.0892   
     5. B(F   5,H   3)                2.8515  0.006143 -0.0082    2.8432   
     6. B(F   5,C   0)                3.0000 -0.015856  0.0000    3.0000 C 
     7. B(F   5,H   2)                2.8001  0.006689 -0.0087    2.7914   
     8. B(F   5,H   4)                2.8164  0.006518 -0.0086    2.8079   
     9. A(H   2,C   0,H   3)          109.09  0.010938   -0.47    108.62   
    10. A(Cl  1,C   0,H   4)          109.84 -0.010720    0.47    110.31   
    11. A(H   2,C   0,H   4)          109.12  0.010400   -0.45    108.67   
    12. A(H   3,C   0,H   4)          109.08  0.011187   -0.48    108.60   
    13. A(H   2,C   0,F   5)           68.96  0.010530   -0.47     68.50   
    14. A(H   3,C   0,F   5)           71.69  0.010894   -0.46     71.23   
    15. A(H   4,C   0,F   5)           69.83  0.010645   -0.46     69.37   
    16. A(Cl  1,C   0,H   2)          109.85 -0.010790    0.47    110.32   
    17. A(Cl  1,C   0,H   3)          109.84 -0.010576    0.46    110.30   
    ----------------------------------------------------------------------------

         *************************************************************
         *                GEOMETRY OPTIMIZATION CYCLE   3            *
         *************************************************************
---------------------------------
CARTESIAN COORDINATES (ANGSTROEM)
---------------------------------
  C     -1.592011   -0.437247    0.000100
  Cl    -0.225925   -0.437136   -0.000623
  H     -1.969687   -1.219401    0.657294
  H     -1.970294   -0.615457   -1.005730
  H     -1.969887    0.523187    0.348174
  F     -4.590795   -0.449075    0.084695

----------------------------
CARTESIAN COORDINATES (A.U.)
----------------------------
  NO LB      ZA    FRAG    MASS        X           Y           Z
   0 C     4.0000    0    12.011         -3.008465524945925         -0.826277521855500          0.000188844383537
   1 Cl    7.0000    0    35.453         -0.426937029272352         -0.826068144909844         -0.001177036832464
   2 H     1.0000    0     1.008         -3.722169558191980         -2.304333962324223          1.242106139272501
   3 H     1.0000    0     1.008         -3.723315689676896         -1.163045876741551         -1.900554694450648
   4 H     1.0000    0     1.008         -3.722546997436529          0.988680811942645          0.657953643836953
   5 F     7.0000    0    18.998         -8.675345553798646         -0.848629333391433          0.160050023687452

--------------------------------
INTERNAL COORDINATES (ANGSTROEM)
--------------------------------
 C      0   0   0   0.000000     0.000     0.000
 Cl     1   0   0   1.366086     0.000     0.000
 H      1   2   0   1.089178   110.312     0.000
 H      1   2   3   1.089289   110.292   240.013
 H      1   2   3   1.089211   110.305   120.059
 F      3   1   2   2.791322    90.209   178.848

---------------------------
INTERNAL COORDINATES (A.U.)
---------------------------
 C      0   0   0   0.000000     0.000     0.000
 Cl     1   0   0   2.581529     0.000     0.000
 H      1   2   0   2.058248   110.312     0.000
 H      1   2   3   2.058458   110.292   240.013
 H      1   2   3   2.058310   110.305   120.059
 F      3   1   2   5.274834    90.209   178.848

------------------------------------------------------------------------------
                           ORCA NDO INTEGRAL CALCULATION
------------------------------------------------------------------------------

--------------
NDO PARAMETERS
--------------

Gamma integral treatment              ... MOPAC
Nuclear repulsuion treatment          ... AM1-style
Interaction factors:
s-s (sigma) =    1.0000
s-p (sigma) =    1.0000
s-d (sigma) =    1.0000
p-p (sigma) =    1.0000  p-p(pi) =    1.0000
p-d (sigma) =    1.0000  p-d(pi) =    1.0000
d-d (sigma) =    1.0000  d-d(pi) =    1.0000 d-d (delta) =    1.0000

--------------------------
Parameters for Element H :
--------------------------
 One-electron parameters (in eV)
  U(s)  =   -13.073321 Beta(s) =     5.626512 Neff(s) =     1.000000
 One-center electron repulsion parameters (in eV)
  G(s,s)=    14.794208
--------------------------
Parameters for Element C :
--------------------------
 One-electron parameters (in eV)
  U(s)  =   -47.270320 Beta(s) =    11.910015 Neff(s) =     2.000000
  U(p)  =   -36.266918 Beta(p) =     9.802755 Neff(p) =     2.000000 
 One-center electron repulsion parameters (in eV)
  G(s,s)=    11.200708
  G(s,p)=    10.265027 G(p,p)  =     9.627141
 Slater-Condon parameters (in eV)
 F2(p,p)=     7.3072 G1(s,p)=    6.8729
--------------------------
Parameters for Element F :
--------------------------
 One-electron parameters (in eV)
  U(s)  =  -110.435303 Beta(s) =    48.405939 Neff(s) =     2.000000
  U(p)  =  -105.685047 Beta(p) =    27.744660 Neff(p) =     5.000000 
 One-center electron repulsion parameters (in eV)
  G(s,s)=    10.496667
  G(s,p)=    16.073689 G(p,p)  =    14.551347
 Slater-Condon parameters (in eV)
 F2(p,p)=     1.6619 G1(s,p)=    2.1833
--------------------------
Parameters for Element Cl:
--------------------------
 One-electron parameters (in eV)
  U(s)  =  -100.626747 Beta(s) =    27.528560 Neff(s) =     2.000000
  U(p)  =   -53.614396 Beta(p) =    11.593922 Neff(p) =     5.000000 
 One-center electron repulsion parameters (in eV)
  G(s,s)=    16.013601
  G(s,p)=     8.048115 G(p,p)  =     7.510174
 Slater-Condon parameters (in eV)
 F2(p,p)=     0.0753 G1(s,p)=   10.4435

 Number of atoms                    ....    6
 Number of basis functions          ....   15

 Overlap integrals                  .... done
 One electron matrix                .... done
 Nuclear repulsion                  .... done
 Integral list                      .... done
 Electron-electron repulsion        .... done

Diagonalization of the overlap matrix:
Smallest eigenvalue                        ... 1.425e-01
Time for diagonalization                   ...    0.000 sec
Threshold for overlap eigenvalues          ... 1.000e-08
Number of eigenvalues below threshold      ... 0
Time for construction of square roots      ...    0.000 sec
Total time needed                          ...    0.001 sec


 InCore treatment chosen:
   Memory dedicated               ...    1024 MB
   Memory needed                  ...      0 MB
   Number of tiny    integrals    ...      18
   Number of small   integrals    ...      54
   Number of regular integrals    ...     372

--------------
SCF ITERATIONS
--------------
ITER       Energy         Delta-E        Max-DP      RMS-DP      [F,P]     Damp
  0    -33.7461246938   0.000000000000 0.00698079  0.00144328  0.0477982 0.7000
  1    -33.7471905713  -0.001065877467 0.00769883  0.00147109  0.0364723 0.7000
                               ***Turning on DIIS***
  2    -33.7481159466  -0.000925375351 0.02326875  0.00424153  0.0268995 0.0000
  3    -33.7492679137  -0.001151967072 0.01090320  0.00179296  0.0066322 0.0000
  4    -33.7511917313  -0.001923817566 0.00713624  0.00123111  0.0034444 0.0000
                      *** Initiating the SOSCF procedure ***
                           *** Shutting down DIIS ***
                      *** Re-Reading the Fockian *** 
                      *** Removing any level shift *** 
ITER      Energy       Delta-E        Grad      Rot      Max-DP    RMS-DP
  5    -33.75162284  -0.0004311135  0.002627  0.002627  0.003952  0.000753
  6    -33.75140623   0.0002166107  0.000651  0.001217  0.001589  0.000279
  7    -33.75141163  -0.0000053978  0.000338  0.001406  0.002016  0.000341
  8    -33.75141397  -0.0000023407  0.000045  0.000070  0.000154  0.000021
  9    -33.75141400  -0.0000000279  0.000020  0.000058  0.000145  0.000018
 10    -33.75141401  -0.0000000091  0.000005  0.000010  0.000017  0.000002
                 **** Energy Check signals convergence ****
              ***Rediagonalizing the Fockian in SOSCF/NRSCF***

               *****************************************************
               *                     SUCCESS                       *
               *           SCF CONVERGED AFTER  11 CYCLES          *
               *****************************************************

Total Energy       :          -33.75141401 Eh            -918.42267 eV
  Last Energy change         ...   -2.1892e-10  Tolerance :   1.0000e-08
  Last MAX-Density change    ...    1.0824e-05  Tolerance :   1.0000e-07
             **** THE GBW FILE WAS UPDATED (input.gbw) ****
             **** DENSITY FILE WAS UPDATED (input.scfp.tmp) ****
             **** ENERGY FILE WAS UPDATED (input.en.tmp) ****
Total SCF time: 0 days 0 hours 0 min 0 sec 

-------------------------   --------------------
FINAL SINGLE POINT ENERGY       -33.751414009787
-------------------------   --------------------

------------------------------------------------------------------------------
                          SCF GRADIENT FOR NDO METHODS
------------------------------------------------------------------------------

The cartesian gradient:
   1   C   :    0.387906921    0.000024491   -0.000121256
   2   Cl  :   -0.443413698   -0.000043986    0.000289142
   3   H   :    0.019661980    0.006916359   -0.005901995
   4   H   :    0.019321628    0.001599811    0.008875591
   5   H   :    0.019551972   -0.008491993   -0.003179894
   6   F   :   -0.003028803   -0.000004682    0.000038412

Norm of the cartesian gradient     ...    0.590326344
RMS gradient                       ...    0.139141254
MAX gradient                       ...    0.443413698
------------------------------------------------------------------------------
                         ORCA GEOMETRY RELAXATION STEP
------------------------------------------------------------------------------

Reading the OPT-File                    .... done
Getting information on internals        .... done
Copying old internal coords+grads       .... done
Making the new internal coordinates     .... (new redundants).... done
Validating the new internal coordinates .... (new redundants).... done
Calculating the B-matrix                .... done
Calculating the G,G- and P matrices     .... done
Transforming gradient to internals      .... done
Projecting the internal gradient        .... done
Number of atoms                         ....   6
Number of internal coordinates          ....  17
Current Energy                          ....   -33.751414010 Eh
Current gradient norm                   ....     0.590326344 Eh/bohr
Maximum allowed component of the step   ....  0.300
Current trust radius                    ....  0.300
Updating the Hessian (BFGS)             .... done
Forming the augmented Hessian           .... done
Diagonalizing the augmented Hessian     .... done
Last element of RFO vector              ....  0.975083724
Lowest eigenvalues of augmented Hessian:
 -0.096977917  0.031018630  0.031030038  0.140923198  0.297677490
Length of the computed step             ....  0.227505767
The final length of the internal step   ....  0.227505767
Converting the step to cartesian space:
 Initial RMS(Int)=    0.0551782534
Transforming coordinates:
 Iter   0:  RMS(Cart)=    0.0488272125 RMS(Int)=    0.0521623726
 Iter   1:  RMS(Cart)=    0.0028753002 RMS(Int)=    0.0032307974
 Iter   2:  RMS(Cart)=    0.0000010908 RMS(Int)=    0.0000015051
 Iter   3:  RMS(Cart)=    0.0000000367 RMS(Int)=    0.0000000290
Imposing constraints:
 Iter   0:  RMS(Cart)=    0.0000216826 RMS(Int)=    0.0001107654
 Iter   1:  RMS(Cart)=    0.0000113219 RMS(Int)=    0.0000578381
 Iter   2:  RMS(Cart)=    0.0000059119 RMS(Int)=    0.0000302011
 Iter   3:  RMS(Cart)=    0.0000030870 RMS(Int)=    0.0000157700
 Iter   4:  RMS(Cart)=    0.0000016119 RMS(Int)=    0.0000082346
 Iter   5:  RMS(Cart)=    0.0000008417 RMS(Int)=    0.0000042998
 Iter   6:  RMS(Cart)=    0.0000004395 RMS(Int)=    0.0000022452
 Iter   7:  RMS(Cart)=    0.0000002295 RMS(Int)=    0.0000011724
 Iter   8:  RMS(Cart)=    0.0000001198 RMS(Int)=    0.0000006122
 Iter   9:  RMS(Cart)=    0.0000000626 RMS(Int)=    0.0000003197
 Iter  10:  RMS(Cart)=    0.0000000327 RMS(Int)=    0.0000001669
 Iter  11:  RMS(Cart)=    0.0000000171 RMS(Int)=    0.0000000872
CONVERGED
done
Storing new coordinates                 .... done

                                .--------------------.
          ----------------------|Geometry convergence|---------------------
          Item                value                 Tolerance   Converged
          -----------------------------------------------------------------
          Energy change      -0.17960992            0.00003000      NO
          RMS gradient        0.10784770            0.00050000      NO
          MAX gradient        0.44341379            0.00200000      NO
          RMS step            0.05517825            0.00700000      NO
          MAX step            0.21331276            0.01000000      NO
          ....................................................
          Max(Bonds)      0.1129      Max(Angles)    0.89
          Max(Dihed)        0.00      Max(Improp)    0.00
          -----------------------------------------------------------------

The optimization has not yet converged - more geometry cycles are needed


    ---------------------------------------------------------------------------
                         Redundant Internal Coordinates
                            (Angstroem and degrees)

        Definition                    Value    dE/dq     Step     New-Value
    ----------------------------------------------------------------------------
     1. B(Cl  1,C   0)                1.3661 -0.443414  0.1129    1.4790   
     2. B(H   2,C   0)                1.0892 -0.015328  0.0115    1.1006   
     3. B(H   3,C   0)                1.0893 -0.015364  0.0113    1.1006   
     4. B(H   4,C   0)                1.0892 -0.015342  0.0114    1.1006   
     5. B(F   5,H   3)                2.8432  0.004500 -0.0155    2.8277   
     6. B(F   5,C   0)                3.0000 -0.010156 -0.0000    3.0000 C 
     7. B(F   5,H   2)                2.7913  0.004885 -0.0165    2.7748   
     8. B(F   5,H   4)                2.8078  0.004764 -0.0162    2.7916   
     9. A(H   2,C   0,H   3)          108.62  0.007278   -0.88    107.74   
    10. A(Cl  1,C   0,H   4)          110.31 -0.007042    0.87    111.18   
    11. A(H   2,C   0,H   4)          108.67  0.007035   -0.87    107.80   
    12. A(H   3,C   0,H   4)          108.59  0.007392   -0.89    107.71   
    13. A(H   2,C   0,F   5)           68.50  0.006944   -0.88     67.62   
    14. A(H   3,C   0,F   5)           71.23  0.007116   -0.86     70.38   
    15. A(H   4,C   0,F   5)           69.37  0.006998   -0.87     68.50   
    16. A(Cl  1,C   0,H   2)          110.31 -0.007098    0.88    111.19   
    17. A(Cl  1,C   0,H   3)          110.29 -0.006927    0.86    111.15   
    ----------------------------------------------------------------------------

         *************************************************************
         *                GEOMETRY OPTIMIZATION CYCLE   4            *
         *************************************************************
---------------------------------
CARTESIAN COORDINATES (ANGSTROEM)
---------------------------------
  C     -1.601179   -0.437252    0.000116
  Cl    -0.122212   -0.437113   -0.000766
  H     -1.998281   -1.223223    0.660375
  H     -1.998587   -0.616260   -1.010539
  H     -1.998387    0.527838    0.349701
  F     -4.599953   -0.449120    0.085023

----------------------------
CARTESIAN COORDINATES (A.U.)
----------------------------
  NO LB      ZA    FRAG    MASS        X           Y           Z
   0 C     4.0000    0    12.011         -3.025789058602032         -0.826287365414658          0.000218703678605
   1 Cl    7.0000    0    35.453         -0.230947947041126         -0.826023888740864         -0.001448423433824
   2 H     1.0000    0     1.008         -3.776204478045119         -2.311557159136028          1.247928691822935
   3 H     1.0000    0     1.008         -3.776782833016222         -1.164561746612127         -1.909642377869431
   4 H     1.0000    0     1.008         -3.776403922925196          0.997469304499948          0.660839394506024
   5 F     7.0000    0    18.998         -8.692652113692635         -0.848713171876177          0.160670931193024

--------------------------------
INTERNAL COORDINATES (ANGSTROEM)
--------------------------------
 C      0   0   0   0.000000     0.000     0.000
 Cl     1   0   0   1.478966     0.000     0.000
 H      1   2   0   1.100629   111.175     0.000
 H      1   2   3   1.100637   111.133   240.016
 H      1   2   3   1.100629   111.162   120.078
 F      3   1   2   2.774701    90.841   178.839

---------------------------
INTERNAL COORDINATES (A.U.)
---------------------------
 C      0   0   0   0.000000     0.000     0.000
 Cl     1   0   0   2.794842     0.000     0.000
 H      1   2   0   2.079887   111.175     0.000
 H      1   2   3   2.079902   111.133   240.016
 H      1   2   3   2.079887   111.162   120.078
 F      3   1   2   5.243424    90.841   178.839

------------------------------------------------------------------------------
                           ORCA NDO INTEGRAL CALCULATION
------------------------------------------------------------------------------

--------------
NDO PARAMETERS
--------------

Gamma integral treatment              ... MOPAC
Nuclear repulsuion treatment          ... AM1-style
Interaction factors:
s-s (sigma) =    1.0000
s-p (sigma) =    1.0000
s-d (sigma) =    1.0000
p-p (sigma) =    1.0000  p-p(pi) =    1.0000
p-d (sigma) =    1.0000  p-d(pi) =    1.0000
d-d (sigma) =    1.0000  d-d(pi) =    1.0000 d-d (delta) =    1.0000

--------------------------
Parameters for Element H :
--------------------------
 One-electron parameters (in eV)
  U(s)  =   -13.073321 Beta(s) =     5.626512 Neff(s) =     1.000000
 One-center electron repulsion parameters (in eV)
  G(s,s)=    14.794208
--------------------------
Parameters for Element C :
--------------------------
 One-electron parameters (in eV)
  U(s)  =   -47.270320 Beta(s) =    11.910015 Neff(s) =     2.000000
  U(p)  =   -36.266918 Beta(p) =     9.802755 Neff(p) =     2.000000 
 One-center electron repulsion parameters (in eV)
  G(s,s)=    11.200708
  G(s,p)=    10.265027 G(p,p)  =     9.627141
 Slater-Condon parameters (in eV)
 F2(p,p)=     7.3072 G1(s,p)=    6.8729
--------------------------
Parameters for Element F :
--------------------------
 One-electron parameters (in eV)
  U(s)  =  -110.435303 Beta(s) =    48.405939 Neff(s) =     2.000000
  U(p)  =  -105.685047 Beta(p) =    27.744660 Neff(p) =     5.000000 
 One-center electron repulsion parameters (in eV)
  G(s,s)=    10.496667
  G(s,p)=    16.073689 G(p,p)  =    14.551347
 Slater-Condon parameters (in eV)
 F2(p,p)=     1.6619 G1(s,p)=    2.1833
--------------------------
Parameters for Element Cl:
--------------------------
 One-electron parameters (in eV)
  U(s)  =  -100.626747 Beta(s) =    27.528560 Neff(s) =     2.000000
  U(p)  =   -53.614396 Beta(p) =    11.593922 Neff(p) =     5.000000 
 One-center electron repulsion parameters (in eV)
  G(s,s)=    16.013601
  G(s,p)=     8.048115 G(p,p)  =     7.510174
 Slater-Condon parameters (in eV)
 F2(p,p)=     0.0753 G1(s,p)=   10.4435

 Number of atoms                    ....    6
 Number of basis functions          ....   15

 Overlap integrals                  .... done
 One electron matrix                .... done
 Nuclear repulsion                  .... done
 Integral list                      .... done
 Electron-electron repulsion        .... done

Diagonalization of the overlap matrix:
Smallest eigenvalue                        ... 1.738e-01
Time for diagonalization                   ...    0.000 sec
Threshold for overlap eigenvalues          ... 1.000e-08
Number of eigenvalues below threshold      ... 0
Time for construction of square roots      ...    0.000 sec
Total time needed                          ...    0.000 sec


 InCore treatment chosen:
   Memory dedicated               ...    1024 MB
   Memory needed                  ...      0 MB
   Number of tiny    integrals    ...      18
   Number of small   integrals    ...      53
   Number of regular integrals    ...     373

--------------
SCF ITERATIONS
--------------
ITER       Energy         Delta-E        Max-DP      RMS-DP      [F,P]     Damp
  0    -33.8185642685   0.000000000000 0.00531912  0.00099416  0.0433317 0.7000
  1    -33.8191195560  -0.000555287554 0.00467825  0.00098163  0.0328673 0.7000
                               ***Turning on DIIS***
  2    -33.8195830363  -0.000463480240 0.01405326  0.00276013  0.0241066 0.0000
  3    -33.8200322473  -0.000449211066 0.00599514  0.00097680  0.0040111 0.0000
                      *** Initiating the SOSCF procedure ***
                           *** Shutting down DIIS ***
                      *** Re-Reading the Fockian *** 
                      *** Removing any level shift *** 
ITER      Energy       Delta-E        Grad      Rot      Max-DP    RMS-DP
  4    -33.82147327  -0.0014410196  0.002396  0.002396  0.003984  0.000655
  5    -33.82106626   0.0004070091  0.000803  0.001476  0.001828  0.000320
  6    -33.82107416  -0.0000079061  0.000383  0.001385  0.001618  0.000313
  7    -33.82107669  -0.0000025287  0.000054  0.000078  0.000166  0.000025
  8    -33.82107673  -0.0000000383  0.000027  0.000077  0.000143  0.000023
  9    -33.82107674  -0.0000000132  0.000005  0.000009  0.000018  0.000002
 10    -33.82107674  -0.0000000002  0.000003  0.000008  0.000015  0.000001
                 **** Energy Check signals convergence ****
              ***Rediagonalizing the Fockian in SOSCF/NRSCF***

               *****************************************************
               *                     SUCCESS                       *
               *           SCF CONVERGED AFTER  11 CYCLES          *
               *****************************************************

Total Energy       :          -33.82107674 Eh            -920.31829 eV
  Last Energy change         ...   -5.7454e-11  Tolerance :   1.0000e-08
  Last MAX-Density change    ...    4.5708e-07  Tolerance :   1.0000e-07
             **** THE GBW FILE WAS UPDATED (input.gbw) ****
             **** DENSITY FILE WAS UPDATED (input.scfp.tmp) ****
             **** ENERGY FILE WAS UPDATED (input.en.tmp) ****
Total SCF time: 0 days 0 hours 0 min 0 sec 

-------------------------   --------------------
FINAL SINGLE POINT ENERGY       -33.821076744344
-------------------------   --------------------

------------------------------------------------------------------------------
                          SCF GRADIENT FOR NDO METHODS
------------------------------------------------------------------------------

The cartesian gradient:
   1   C   :    0.185880376    0.000003510    0.000012850
   2   Cl  :   -0.215660205   -0.000026155    0.000169649
   3   H   :    0.011291657    0.000887666   -0.000870112
   4   H   :    0.010953756    0.000247727    0.001172572
   5   H   :    0.011182003   -0.001105402   -0.000543601
   6   F   :   -0.003647587   -0.000007346    0.000058642

Norm of the cartesian gradient     ...    0.285396563
RMS gradient                       ...    0.067268615
MAX gradient                       ...    0.215660205
------------------------------------------------------------------------------
                         ORCA GEOMETRY RELAXATION STEP
------------------------------------------------------------------------------

Reading the OPT-File                    .... done
Getting information on internals        .... done
Copying old internal coords+grads       .... done
Making the new internal coordinates     .... (new redundants).... done
Validating the new internal coordinates .... (new redundants).... done
Calculating the B-matrix                .... done
Calculating the G,G- and P matrices     .... done
Transforming gradient to internals      .... done
Projecting the internal gradient        .... done
Number of atoms                         ....   6
Number of internal coordinates          ....  17
Current Energy                          ....   -33.821076744 Eh
Current gradient norm                   ....     0.285396563 Eh/bohr
Maximum allowed component of the step   ....  0.300
Current trust radius                    ....  0.300
Updating the Hessian (BFGS)             .... done
Forming the augmented Hessian           .... done
Diagonalizing the augmented Hessian     .... done
Last element of RFO vector              ....  0.977966216
Lowest eigenvalues of augmented Hessian:
 -0.043241705  0.031018655  0.031030074  0.140270193  0.297677489
Length of the computed step             ....  0.213466697
The final length of the internal step   ....  0.213466697
Converting the step to cartesian space:
 Initial RMS(Int)=    0.0517732788
Transforming coordinates:
 Iter   0:  RMS(Cart)=    0.0479538631 RMS(Int)=    0.0517891021
 Iter   1:  RMS(Cart)=    0.0001332330 RMS(Int)=    0.0001478195
 Iter   2:  RMS(Cart)=    0.0000014511 RMS(Int)=    0.0000019381
 Iter   3:  RMS(Cart)=    0.0000000334 RMS(Int)=    0.0000000390
Imposing constraints:
 Iter   0:  RMS(Cart)=    0.0000044110 RMS(Int)=    0.0000224129
 Iter   1:  RMS(Cart)=    0.0000022993 RMS(Int)=    0.0000116829
 Iter   2:  RMS(Cart)=    0.0000011985 RMS(Int)=    0.0000060898
 Iter   3:  RMS(Cart)=    0.0000006247 RMS(Int)=    0.0000031744
 Iter   4:  RMS(Cart)=    0.0000003256 RMS(Int)=    0.0000016547
 Iter   5:  RMS(Cart)=    0.0000001697 RMS(Int)=    0.0000008625
 Iter   6:  RMS(Cart)=    0.0000000885 RMS(Int)=    0.0000004496
 Iter   7:  RMS(Cart)=    0.0000000461 RMS(Int)=    0.0000002344
 Iter   8:  RMS(Cart)=    0.0000000240 RMS(Int)=    0.0000001222
 Iter   9:  RMS(Cart)=    0.0000000125 RMS(Int)=    0.0000000637
CONVERGED
done
Storing new coordinates                 .... done

                                .--------------------.
          ----------------------|Geometry convergence|---------------------
          Item                value                 Tolerance   Converged
          -----------------------------------------------------------------
          Energy change      -0.06966273            0.00003000      NO
          RMS gradient        0.05244772            0.00050000      NO
          MAX gradient        0.21566026            0.00200000      NO
          RMS step            0.05177328            0.00700000      NO
          MAX step            0.19465208            0.01000000      NO
          ....................................................
          Max(Bonds)      0.1030      Max(Angles)    1.11
          Max(Dihed)        0.00      Max(Improp)    0.00
          -----------------------------------------------------------------

The optimization has not yet converged - more geometry cycles are needed


    ---------------------------------------------------------------------------
                         Redundant Internal Coordinates
                            (Angstroem and degrees)

        Definition                    Value    dE/dq     Step     New-Value
    ----------------------------------------------------------------------------
     1. B(Cl  1,C   0)                1.4790 -0.215660  0.1030    1.5820   
     2. B(H   2,C   0)                1.1006 -0.005178  0.0044    1.1050   
     3. B(H   3,C   0)                1.1006 -0.005182  0.0042    1.1049   
     4. B(H   4,C   0)                1.1006 -0.005180  0.0043    1.1050   
     5. B(F   5,H   3)                2.8276  0.003299 -0.0193    2.8083   
     6. B(F   5,C   0)                3.0000 -0.005955  0.0000    3.0000 C 
     7. B(F   5,H   2)                2.7747  0.003552 -0.0208    2.7539   
     8. B(F   5,H   4)                2.7915  0.003471 -0.0203    2.7713   
     9. A(H   2,C   0,H   3)          107.72  0.004606   -1.09    106.63   
    10. A(Cl  1,C   0,H   4)          111.16 -0.004353    1.06    112.22   
    11. A(H   2,C   0,H   4)          107.78  0.004553   -1.11    106.67   
    12. A(H   3,C   0,H   4)          107.70  0.004633   -1.08    106.61   
    13. A(H   2,C   0,F   5)           67.64  0.004335   -1.09     66.55   
    14. A(H   3,C   0,F   5)           70.39  0.004335   -1.02     69.37   
    15. A(H   4,C   0,F   5)           68.51  0.004334   -1.07     67.45   
    16. A(Cl  1,C   0,H   2)          111.18 -0.004398    1.07    112.25   
    17. A(Cl  1,C   0,H   3)          111.13 -0.004258    1.04    112.18   
    ----------------------------------------------------------------------------

         *************************************************************
         *                GEOMETRY OPTIMIZATION CYCLE   5            *
         *************************************************************
---------------------------------
CARTESIAN COORDINATES (ANGSTROEM)
---------------------------------
  C     -1.608217   -0.437238   -0.000002
  Cl    -0.026246   -0.437122   -0.000719
  H     -2.025949   -1.220521    0.658018
  H     -2.025428   -0.615659   -1.007382
  H     -2.025787    0.524612    0.348418
  F     -4.606973   -0.449202    0.085578

----------------------------
CARTESIAN COORDINATES (A.U.)
----------------------------
  NO LB      ZA    FRAG    MASS        X           Y           Z
   0 C     4.0000    0    12.011         -3.039090486592448         -0.826260178101668         -0.000004030095660
   1 Cl    7.0000    0    35.453         -0.049597095943547         -0.826040491182411         -0.001357955625552
   2 H     1.0000    0     1.008         -3.828489268783266         -2.306450177465651          1.243473313258694
   3 H     1.0000    0     1.008         -3.827505052581131         -1.163427068060345         -1.903677003054012
   4 H     1.0000    0     1.008         -3.828181899577683          0.991373221643764          0.658414011279867
   5 F     7.0000    0    18.998         -8.705916549844256         -0.848869334113597          0.161718584133997

--------------------------------
INTERNAL COORDINATES (ANGSTROEM)
--------------------------------
 C      0   0   0   0.000000     0.000     0.000
 Cl     1   0   0   1.581972     0.000     0.000
 H      1   2   0   1.104999   112.232     0.000
 H      1   2   3   1.104859   112.161   240.014
 H      1   2   3   1.104951   112.209   120.072
 F      3   1   2   2.753961    91.833   178.815

---------------------------
INTERNAL COORDINATES (A.U.)
---------------------------
 C      0   0   0   0.000000     0.000     0.000
 Cl     1   0   0   2.989494     0.000     0.000
 H      1   2   0   2.088145   112.232     0.000
 H      1   2   3   2.087882   112.161   240.014
 H      1   2   3   2.088054   112.209   120.072
 F      3   1   2   5.204232    91.833   178.815

------------------------------------------------------------------------------
                           ORCA NDO INTEGRAL CALCULATION
------------------------------------------------------------------------------

--------------
NDO PARAMETERS
--------------

Gamma integral treatment              ... MOPAC
Nuclear repulsuion treatment          ... AM1-style
Interaction factors:
s-s (sigma) =    1.0000
s-p (sigma) =    1.0000
s-d (sigma) =    1.0000
p-p (sigma) =    1.0000  p-p(pi) =    1.0000
p-d (sigma) =    1.0000  p-d(pi) =    1.0000
d-d (sigma) =    1.0000  d-d(pi) =    1.0000 d-d (delta) =    1.0000

--------------------------
Parameters for Element H :
--------------------------
 One-electron parameters (in eV)
  U(s)  =   -13.073321 Beta(s) =     5.626512 Neff(s) =     1.000000
 One-center electron repulsion parameters (in eV)
  G(s,s)=    14.794208
--------------------------
Parameters for Element C :
--------------------------
 One-electron parameters (in eV)
  U(s)  =   -47.270320 Beta(s) =    11.910015 Neff(s) =     2.000000
  U(p)  =   -36.266918 Beta(p) =     9.802755 Neff(p) =     2.000000 
 One-center electron repulsion parameters (in eV)
  G(s,s)=    11.200708
  G(s,p)=    10.265027 G(p,p)  =     9.627141
 Slater-Condon parameters (in eV)
 F2(p,p)=     7.3072 G1(s,p)=    6.8729
--------------------------
Parameters for Element F :
--------------------------
 One-electron parameters (in eV)
  U(s)  =  -110.435303 Beta(s) =    48.405939 Neff(s) =     2.000000
  U(p)  =  -105.685047 Beta(p) =    27.744660 Neff(p) =     5.000000 
 One-center electron repulsion parameters (in eV)
  G(s,s)=    10.496667
  G(s,p)=    16.073689 G(p,p)  =    14.551347
 Slater-Condon parameters (in eV)
 F2(p,p)=     1.6619 G1(s,p)=    2.1833
--------------------------
Parameters for Element Cl:
--------------------------
 One-electron parameters (in eV)
  U(s)  =  -100.626747 Beta(s) =    27.528560 Neff(s) =     2.000000
  U(p)  =   -53.614396 Beta(p) =    11.593922 Neff(p) =     5.000000 
 One-center electron repulsion parameters (in eV)
  G(s,s)=    16.013601
  G(s,p)=     8.048115 G(p,p)  =     7.510174
 Slater-Condon parameters (in eV)
 F2(p,p)=     0.0753 G1(s,p)=   10.4435

 Number of atoms                    ....    6
 Number of basis functions          ....   15

 Overlap integrals                  .... done
 One electron matrix                .... done
 Nuclear repulsion                  .... done
 Integral list                      .... done
 Electron-electron repulsion        .... done

Diagonalization of the overlap matrix:
Smallest eigenvalue                        ... 1.922e-01
Time for diagonalization                   ...    0.000 sec
Threshold for overlap eigenvalues          ... 1.000e-08
[...]
     8. B(F   5,C   0)                1.2000 -0.269500 -0.0000    1.2000 C 
     9. A(H   3,C   0,H   4)          106.75  0.000023   -0.04    106.71   
    10. A(H   2,C   0,F   5)          112.07 -0.000023    0.03    112.10   
    11. A(H   3,C   0,F   5)          112.07 -0.000021    0.03    112.10   
    12. A(H   4,C   0,F   5)          112.07 -0.000021    0.03    112.10   
    13. A(Cl  1,C   0,H   2)           67.90  0.000023   -0.04     67.87   
    14. A(Cl  1,C   0,H   3)           67.95  0.000021   -0.03     67.92   
    15. A(Cl  1,C   0,H   4)           67.94  0.000021   -0.03     67.91   
    16. A(H   2,C   0,H   3)          106.75  0.000024   -0.04    106.72   
    17. A(H   2,C   0,H   4)          106.76  0.000024   -0.04    106.72   
    ----------------------------------------------------------------------------
                 *******************************************************
                 *** FINAL ENERGY EVALUATION AT THE STATIONARY POINT ***
                 ***               (AFTER    4 CYCLES)               ***
                 *******************************************************
---------------------------------
CARTESIAN COORDINATES (ANGSTROEM)
---------------------------------
  C     -2.564334   -0.440123    0.021174
  Cl     0.459281   -0.434653   -0.021243
  H     -2.138591   -1.220653    0.672062
  H     -2.163977   -0.617499   -0.989973
  H     -2.146773    0.520459    0.363343
  F     -3.764206   -0.442662    0.038547

----------------------------
CARTESIAN COORDINATES (A.U.)
----------------------------
  NO LB      ZA    FRAG    MASS        X           Y           Z
   0 C     4.0000    0    12.011         -4.845889433926897         -0.831711659475734          0.040012412920432
   1 Cl    7.0000    0    35.453          0.867914564352948         -0.821374225423540         -0.040143815034808
   2 H     1.0000    0     1.008         -4.041351557755388         -2.306700287598096          1.270013447212828
   3 H     1.0000    0     1.008         -4.089323651654688         -1.166903350178892         -1.870777068333511
   4 H     1.0000    0     1.008         -4.056812227178066          0.983525196196530          0.686618757233942
   5 F     7.0000    0    18.998         -7.113318047160258         -0.836509700800173          0.072843185898451

--------------------------------
INTERNAL COORDINATES (ANGSTROEM)
--------------------------------
 C      0   0   0   0.000000     0.000     0.000
 Cl     1   0   0   3.023917     0.000     0.000
 H      1   2   0   1.101881    67.866     0.000
 H      1   2   3   1.101892    67.921   239.994
 H      1   2   3   1.101887    67.906   120.019
 F      1   2   3   1.200000   179.969    15.700

---------------------------
INTERNAL COORDINATES (A.U.)
---------------------------
 C      0   0   0   0.000000     0.000     0.000
 Cl     1   0   0   5.714376     0.000     0.000
 H      1   2   0   2.082252    67.866     0.000
 H      1   2   3   2.082273    67.921   239.994
 H      1   2   3   2.082265    67.906   120.019
 F      1   2   3   2.267671   179.969    15.700

----------------------------
SLATER BASIS SET DIM=  15
----------------------------
  0 C     2 shells
 l=0 nsto= 1
    2       1.565085000000        1.000000000000
 l=1 nsto= 1
    2       1.842345000000        1.000000000000
  1 Cl    2 shells
 l=0 nsto= 1
    3       2.246210000000        1.000000000000
 l=1 nsto= 1
    3       2.151010000000        1.000000000000
  2 H     1 shells
 l=0 nsto= 1
    1       0.967807000000        1.000000000000
  3 H     1 shells
 l=0 nsto= 1
    1       0.967807000000        1.000000000000
  4 H     1 shells
 l=0 nsto= 1
    1       0.967807000000        1.000000000000
  5 F     2 shells
 l=0 nsto= 1
    2       4.708555000000        1.000000000000
 l=1 nsto= 1
    2       2.491178000000        1.000000000000
------------------------------------------------------------------------------
                           ORCA NDO INTEGRAL CALCULATION
------------------------------------------------------------------------------

--------------
NDO PARAMETERS
--------------

Gamma integral treatment              ... MOPAC
Nuclear repulsuion treatment          ... AM1-style
Interaction factors:
s-s (sigma) =    1.0000
s-p (sigma) =    1.0000
s-d (sigma) =    1.0000
p-p (sigma) =    1.0000  p-p(pi) =    1.0000
p-d (sigma) =    1.0000  p-d(pi) =    1.0000
d-d (sigma) =    1.0000  d-d(pi) =    1.0000 d-d (delta) =    1.0000

--------------------------
Parameters for Element H :
--------------------------
 One-electron parameters (in eV)
  U(s)  =   -13.073321 Beta(s) =     5.626512 Neff(s) =     1.000000
 One-center electron repulsion parameters (in eV)
  G(s,s)=    14.794208
--------------------------
Parameters for Element C :
--------------------------
 One-electron parameters (in eV)
  U(s)  =   -47.270320 Beta(s) =    11.910015 Neff(s) =     2.000000
  U(p)  =   -36.266918 Beta(p) =     9.802755 Neff(p) =     2.000000 
 One-center electron repulsion parameters (in eV)
  G(s,s)=    11.200708
  G(s,p)=    10.265027 G(p,p)  =     9.627141
 Slater-Condon parameters (in eV)
 F2(p,p)=     7.3072 G1(s,p)=    6.8729
--------------------------
Parameters for Element F :
--------------------------
 One-electron parameters (in eV)
  U(s)  =  -110.435303 Beta(s) =    48.405939 Neff(s) =     2.000000
  U(p)  =  -105.685047 Beta(p) =    27.744660 Neff(p) =     5.000000 
 One-center electron repulsion parameters (in eV)
  G(s,s)=    10.496667
  G(s,p)=    16.073689 G(p,p)  =    14.551347
 Slater-Condon parameters (in eV)
 F2(p,p)=     1.6619 G1(s,p)=    2.1833
--------------------------
Parameters for Element Cl:
--------------------------
 One-electron parameters (in eV)
  U(s)  =  -100.626747 Beta(s) =    27.528560 Neff(s) =     2.000000
  U(p)  =   -53.614396 Beta(p) =    11.593922 Neff(p) =     5.000000 
 One-center electron repulsion parameters (in eV)
  G(s,s)=    16.013601
  G(s,p)=     8.048115 G(p,p)  =     7.510174
 Slater-Condon parameters (in eV)
 F2(p,p)=     0.0753 G1(s,p)=   10.4435

 Number of atoms                    ....    6
 Number of basis functions          ....   15

 Overlap integrals                  .... done
 One electron matrix                .... done
 Nuclear repulsion                  .... done
 Integral list                      .... done
 Electron-electron repulsion        .... done
-------------------------------------------------------------------------------
                                 ORCA SCF
-------------------------------------------------------------------------------

------------
SCF SETTINGS
------------
Hamiltonian:
 ZDO-Hamiltonian        Method          .... NDDO


General Settings:
 Integral files         IntName         .... input
 Hartree-Fock type      HFTyp           .... RHF
 Total Charge           Charge          ....   -1
 Multiplicity           Mult            ....    1
 Number of Electrons    NEL             ....   22
 Basis Dimension        Dim             ....   15
 Nuclear Repulsion      ENuc            ....     33.2610598479 Eh

Convergence Acceleration:
 DIIS                   CNVDIIS         .... on
   Start iteration      DIISMaxIt       ....    12
   Startup error        DIISStart       ....  0.200000
   # of expansion vecs  DIISMaxEq       ....     5
   Bias factor          DIISBfac        ....   1.050
   Max. coefficient     DIISMaxC        ....  10.000
 Newton-Raphson         CNVNR           .... off
 SOSCF                  CNVSOSCF        .... on
   Start iteration      SOSCFMaxIt      ....   150
   Startup grad/error   SOSCFStart      ....  0.003300
 Level Shifting         CNVShift        .... on
   Level shift para.    LevelShift      ....    0.2500
   Turn off err/grad.   ShiftErr        ....    0.0010
 Zerner damping         CNVZerner       .... off
 Static damping         CNVDamp         .... on
   Fraction old density DampFac         ....    0.7000
   Max. Damping (<1)    DampMax         ....    0.9800
   Min. Damping (>=0)   DampMin         ....    0.0000
   Turn off err/grad.   DampErr         ....    0.1000
 Fernandez-Rico         CNVRico         .... off

SCF Procedure:
 Maximum # iterations   MaxIter         ....   125
 SCF integral mode      SCFMode         .... Conventional
 Integral Buffer length BufferLength    .... 1048576
 Integral index format  IndFormat       ....     0
 Integral value format  ValFormat       ....     0
 Integral Storage       Thresh          ....  2.500e-11 Eh

Convergence Tolerance:
 Convergence Check Mode ConvCheckMode   .... Total+1el-Energy
 Energy Change          TolE            ....  1.000e-08 Eh
 1-El. energy change                    ....  1.000e-05 Eh
 Orbital Gradient       TolG            ....  1.000e-05
 Orbital Rotation angle TolX            ....  1.000e-05
 DIIS Error             TolErr          ....  5.000e-07


Diagonalization of the overlap matrix:
Smallest eigenvalue                        ... 2.026e-01
Time for diagonalization                   ...    0.000 sec
Threshold for overlap eigenvalues          ... 1.000e-08
Number of eigenvalues below threshold      ... 0
Time for construction of square roots      ...    0.000 sec
Total time needed                          ...    0.001 sec

---------------------
INITIAL GUESS: MOREAD
---------------------
Guess MOs are being read from file: input.gbw
Input Geometry matches current geometry (good)
Input basis set matches current basis set (good)
                      ------------------
                      INITIAL GUESS DONE (   0.0 sec)
                      ------------------

 InCore treatment chosen:
   Memory dedicated               ...    1024 MB
   Memory needed                  ...      0 MB
   Number of tiny    integrals    ...       0
   Number of small   integrals    ...      61
   Number of regular integrals    ...     383

--------------
SCF ITERATIONS
--------------
ITER       Energy         Delta-E        Max-DP      RMS-DP      [F,P]     Damp
                      *** Initiating the SOSCF procedure ***
                      *** Re-Reading the Fockian *** 
                      *** Removing any level shift *** 
ITER      Energy       Delta-E        Grad      Rot      Max-DP    RMS-DP
  0    -33.93045246 -33.9304524645  0.000262  0.000262  0.000188  0.000034
  1    -33.93045266  -0.0000001969  0.000061  0.000145  0.000188  0.000027
  2    -33.93045272  -0.0000000554  0.000023  0.000089  0.000118  0.000018
                 **** Energy Check signals convergence ****
              ***Rediagonalizing the Fockian in SOSCF/NRSCF***

               *****************************************************
               *                     SUCCESS                       *
               *           SCF CONVERGED AFTER   3 CYCLES          *
               *****************************************************


----------------
TOTAL SCF ENERGY
----------------

Total Energy       :          -33.93045273 Eh            -923.29456 eV

Components:
Nuclear Repulsion  :           33.26105985 Eh             905.07945 eV
Electronic Energy  :          -67.19151257 Eh           -1828.37401 eV

One Electron Energy:         -122.22944329 Eh           -3326.03224 eV
Two Electron Energy:           55.03793071 Eh            1497.65823 eV


---------------
SCF CONVERGENCE
---------------

  Last Energy change         ...   -9.7414e-09  Tolerance :   1.0000e-08
  Last MAX-Density change    ...    1.0972e-05  Tolerance :   1.0000e-07
  Last RMS-Density change    ...    1.9448e-06  Tolerance :   5.0000e-09
  Last Orbital Gradient      ...    1.1115e-06  Tolerance :   1.0000e-05
  Last Orbital Rotation      ...    5.9814e-06  Tolerance :   1.0000e-05

             **** THE GBW FILE WAS UPDATED (input.gbw) ****
             **** DENSITY FILE WAS UPDATED (input.scfp.tmp) ****
             **** ENERGY FILE WAS UPDATED (input.en.tmp) ****
----------------
ORBITAL ENERGIES
----------------

  NO   OCC          E(Eh)            E(eV) 
   0   2.0000      -1.732460       -47.1426 
   1   2.0000      -1.072540       -29.1853 
   2   2.0000      -0.624272       -16.9873 
   3   2.0000      -0.565089       -15.3769 
   4   2.0000      -0.565089       -15.3768 
   5   2.0000      -0.520889       -14.1741 
   6   2.0000      -0.292516        -7.9598 
   7   2.0000      -0.292512        -7.9596 
   8   2.0000      -0.137440        -3.7399 
   9   2.0000      -0.137439        -3.7399 
  10   2.0000      -0.136547        -3.7156 
  11   0.0000       0.281731         7.6663 
  12   0.0000       0.307204         8.3594 
  13   0.0000       0.307224         8.3600 
  14   0.0000       0.357746         9.7348 

                    ********************************
                    * MULLIKEN POPULATION ANALYSIS *
                    ********************************

-----------------------
MULLIKEN ATOMIC CHARGES
-----------------------
   0 C :   -0.222166
   1 Cl:   -0.995892
   2 H :    0.115871
   3 H :    0.115708
   4 H :    0.115756
   5 F :   -0.129276
Sum of atomic charges:   -1.0000000

--------------------------------
MULLIKEN REDUCED ORBITAL CHARGES
--------------------------------
  0 C s       :     1.447286  s :     1.447286
      pz      :     0.981790  p :     2.774880
      px      :     0.811221
      py      :     0.981868
  1 Cls       :     2.001873  s :     2.001873
      pz      :     1.999353  p :     5.994019
      px      :     1.995314
      py      :     1.999353
  2 H s       :     0.884129  s :     0.884129
  3 H s       :     0.884292  s :     0.884292
  4 H s       :     0.884244  s :     0.884244
  5 F s       :     1.658876  s :     1.658876
      pz      :     1.977138  p :     5.470400
      px      :     1.516027
      py      :     1.977235


                     *******************************
                     * LOEWDIN POPULATION ANALYSIS *
                     *******************************

----------------------
LOEWDIN ATOMIC CHARGES
----------------------
   0 C :   -0.017022
   1 Cl:   -0.992735
   2 H :    0.043649
   3 H :    0.043526
   4 H :    0.043562
   5 F :   -0.120981

-------------------------------
LOEWDIN REDUCED ORBITAL CHARGES
-------------------------------
  0 C s       :     1.117575  s :     1.117575
      pz      :     1.035066  p :     2.899447
      px      :     0.829238
      py      :     1.035144
  1 Cls       :     1.999463  s :     1.999463
      pz      :     1.999238  p :     5.993272
      px      :     1.994796
      py      :     1.999238
  2 H s       :     0.956351  s :     0.956351
  3 H s       :     0.956474  s :     0.956474
  4 H s       :     0.956438  s :     0.956438
  5 F s       :     1.660980  s :     1.660980
      pz      :     1.976060  p :     5.460000
      px      :     1.507781
      py      :     1.976159


                      *****************************
                      * MAYER POPULATION ANALYSIS *
                      *****************************

  NA   - Mulliken gross atomic population
  ZA   - Total nuclear charge
  QA   - Mulliken gross atomic charge
  VA   - Mayer's total valence
  BVA  - Mayer's bonded valence
  FA   - Mayer's free valence

  ATOM       NA         ZA         QA         VA         BVA        FA
  0 C      4.2222     4.0000    -0.2222     3.7418     3.7418    -0.0000
  1 Cl     7.9959     7.0000    -0.9959     0.0082     0.0082    -0.0000
  2 H      0.8841     1.0000     0.1159     0.9866     0.9866    -0.0000
  3 H      0.8843     1.0000     0.1157     0.9866     0.9866    -0.0000
  4 H      0.8842     1.0000     0.1158     0.9866     0.9866     0.0000
  5 F      7.1293     7.0000    -0.1293     1.0606     1.0606     0.0000

  Mayer bond orders larger than 0.1
B(  0-C ,  2-H ) :   0.9143 B(  0-C ,  3-H ) :   0.9143 B(  0-C ,  4-H ) :   0.9143 
B(  0-C ,  5-F ) :   0.9960 

-------
TIMINGS
-------

Total SCF time: 0 days 0 hours 0 min 0 sec 

Total time                  ....       0.027 sec
Sum of individual times     ....       0.025 sec  ( 93.9%)

Fock matrix formation       ....       0.023 sec  ( 84.2%)
Diagonalization             ....       0.000 sec  (  1.1%)
Density matrix formation    ....       0.000 sec  (  0.1%)
Population analysis         ....       0.001 sec  (  2.5%)
Initial guess               ....       0.000 sec  (  0.8%)
Orbital Transformation      ....       0.000 sec  (  0.0%)
Orbital Orthonormalization  ....       0.000 sec  (  0.0%)
DIIS solution               ....       0.000 sec  (  0.1%)
SOSCF solution              ....       0.001 sec  (  5.3%)

-------------------------   --------------------
FINAL SINGLE POINT ENERGY       -33.930452726594
-------------------------   --------------------

                                *** OPTIMIZATION RUN DONE ***

Storing optimized geometry in input.015.xyz ... done
Storing optimized geometry and energy in input.xyzall ... done
Storing actual gbw-file in input.015.gbw ... done

                            ***************************************
                            *     ORCA property calculations      *
                            ***************************************

                                    ---------------------
                                    Active property flags
                                    ---------------------
   (+) Dipole Moment


------------------------------------------------------------------------------
                       ORCA ELECTRIC PROPERTIES CALCULATION
------------------------------------------------------------------------------

Dipole Moment Calculation                       ... on
Quadrupole Moment Calculation                   ... off
Polarizability Calculation                      ... off
GBWName                                         ... input.gbw
Electron density file                           ... input.scfp.tmp

-------------
DIPOLE MOMENT
-------------
                                X             Y             Z
Electronic contribution:     29.93379       0.05328      -0.41860
Nuclear contribution   :    -22.44355      -0.04092       0.31529
                        -----------------------------------------
Total Dipole Moment    :      7.49024       0.01236      -0.10331
                        -----------------------------------------
Magnitude (a.u.)       :      7.49096
Magnitude (Debye)      :     19.04052

                   **** RELAXED SURFACE SCAN DONE ***

                    SUMMARY OF THE CALCULATED SURFACE

----------------------------
RELAXED SURFACE SCAN RESULTS
----------------------------

Column   1: NONAME

The Calculated Surface using the 'Actual Energy'
   3.00000000 -33.86955061
   2.87142857 -33.87079494
   2.74285714 -33.87167508
   2.61428571 -33.87179787
   2.48571429 -33.87087113
   2.35714286 -33.86891211
   2.22857143 -33.86650986
   2.10000000 -33.86552853
   1.97142857 -33.87141644
   1.84285714 -33.88704474
   1.71428571 -33.90913864
   1.58571429 -33.93516403
   1.45714286 -33.95871975
   1.32857143 -33.96517282
   1.20000000 -33.93045273

The Calculated Surface using the SCF energy
   3.00000000 -33.86955061
   2.87142857 -33.87079494
   2.74285714 -33.87167508
   2.61428571 -33.87179787
   2.48571429 -33.87087113
   2.35714286 -33.86891211
   2.22857143 -33.86650986
   2.10000000 -33.86552853
   1.97142857 -33.87141644
   1.84285714 -33.88704474
   1.71428571 -33.90913864
   1.58571429 -33.93516403
   1.45714286 -33.95871975
   1.32857143 -33.96517282
   1.20000000 -33.93045273


Timings for individual modules:

Sum of individual times         ...       26.354 sec (=   0.439 min)
STO integral calculation        ...        7.126 sec (=   0.119 min)  27.0 %
SCF iterations                  ...       10.425 sec (=   0.174 min)  39.6 %
SCF Gradient evaluation         ...        1.420 sec (=   0.024 min)   5.4 %
Geometry relaxation             ...        7.383 sec (=   0.123 min)  28.0 %
                             ****ORCA TERMINATED NORMALLY****
TOTAL RUN TIME: 0 days 0 hours 0 minutes 34 seconds 49 msec
