6
Step 0
C	-1.552478	-0.437225	-0.000033
Cl	-0.482478	-0.437225	-0.000034
H	-1.910797	-1.208924	0.648803
H	-1.910778	-0.613257	-0.992704
H	-1.910790	0.510478	0.343934
F	-4.551279	-0.448976	0.083944

6
Step 1
C	-1.574205	-0.437239	0.000060
Cl	-0.347189	-0.437179	-0.000346
H	-1.941173	-1.216161	0.654742
H	-1.941693	-0.614824	-1.001812
H	-1.941342	0.519297	0.346966
F	-4.572999	-0.449023	0.084300

6
Step 2
C	-1.592011	-0.437247	0.000100
Cl	-0.225925	-0.437136	-0.000623
H	-1.969687	-1.219401	0.657294
H	-1.970294	-0.615457	-1.005730
H	-1.969887	0.523187	0.348174
F	-4.590795	-0.449075	0.084695

6
Step 3
C	-1.601179	-0.437252	0.000116
Cl	-0.122212	-0.437113	-0.000766
H	-1.998281	-1.223223	0.660375
H	-1.998587	-0.616260	-1.010539
H	-1.998387	0.527838	0.349701
F	-4.599953	-0.449120	0.085023

6
Step 4
C	-1.608217	-0.437238	-0.000002
Cl	-0.026246	-0.437122	-0.000719
H	-2.025949	-1.220521	0.658018
H	-2.025428	-0.615659	-1.007382
H	-2.025787	0.524612	0.348418
F	-4.606973	-0.449202	0.085578

6
Step 5
C	-1.617865	-0.437193	-0.000310
Cl	0.053085	-0.437160	-0.000574
H	-2.046480	-1.215074	0.653503
H	-2.044819	-0.614564	-1.001215
H	-2.045933	0.518197	0.346139
F	-4.616588	-0.449336	0.086367

6
Step 6
C	-1.631292	-0.437129	-0.000707
Cl	0.107518	-0.437222	-0.000395
H	-2.056215	-1.213235	0.652057
H	-2.053382	-0.614324	-0.999873
H	-2.055255	0.516294	0.345523
F	-4.629975	-0.449513	0.087304

6
Step 7
C	-1.645943	-0.437061	-0.001100
Cl	0.136134	-0.437321	-0.000003
H	-2.056550	-1.215415	0.653746
H	-2.052506	-0.614896	-1.003600
H	-2.055156	0.519292	0.346396
F	-4.644579	-0.449730	0.088472

6
Step 8
C	-1.660595	-0.436980	-0.001542
Cl	0.147801	-0.437479	0.000786
H	-2.051369	-1.219318	0.656537
H	-2.045830	-0.615740	-1.009564
H	-2.049440	0.524403	0.347623
F	-4.659167	-0.450016	0.090070

6
Step 9
C	-1.673739	-0.436880	-0.002090
Cl	0.147431	-0.437718	0.002087
H	-2.043401	-1.223701	0.659365
H	-2.035889	-0.616582	-1.016287
H	-2.040775	0.530140	0.348633
F	-4.672227	-0.450388	0.092202

6
Step 10
C	-1.679290	-0.436796	-0.002560
Cl	0.140621	-0.437957	0.003449
H	-2.038279	-1.226206	0.660589
H	-2.028941	-0.616961	-1.020419
H	-2.035011	0.533505	0.348761
F	-4.677700	-0.450715	0.094089

6
Step 11
C	-1.679357	-0.436736	-0.002896
Cl	0.136414	-0.438147	0.004539
H	-2.037484	-1.226635	0.660289
H	-2.026738	-0.616914	-1.021659
H	-2.033723	0.534252	0.348210
F	-4.677712	-0.450951	0.095426

6
Step 12
C	-1.733846	-0.436937	-0.001491
Cl	0.081926	-0.438310	0.005754
H	-2.025413	-1.245963	0.675961
H	-2.015623	-0.621060	-1.046041
H	-2.021977	0.557815	0.356107
F	-4.603666	-0.450675	0.093620

6
Step 13
C	-1.725823	-0.436861	-0.002014
Cl	0.108445	-0.438305	0.005746
H	-2.040214	-1.236350	0.667489
H	-2.029059	-0.618434	-1.032131
H	-2.036324	0.545500	0.351154
F	-4.595624	-0.450680	0.093665

6
Step 14
C	-1.715647	-0.436793	-0.002459
Cl	0.124818	-0.438410	0.006293
H	-2.052962	-1.230289	0.662544
H	-2.040704	-0.617226	-1.025190
H	-2.048685	0.538354	0.348704
F	-4.585420	-0.450766	0.094019

6
Step 15
C	-1.709372	-0.436749	-0.002712
Cl	0.125267	-0.438494	0.006662
H	-2.057665	-1.228128	0.660928
H	-2.044608	-0.616950	-1.023378
H	-2.053097	0.536043	0.348071
F	-4.579125	-0.450853	0.094339

6
Step 16
C	-1.701903	-0.436685	-0.003055
Cl	0.119877	-0.438632	0.007258
H	-2.061473	-1.226225	0.659444
H	-2.047071	-0.616742	-1.022223
H	-2.056410	0.534173	0.347477
F	-4.571620	-0.451020	0.095010

6
Step 17
C	-1.701311	-0.436662	-0.003161
Cl	0.117329	-0.438700	0.007598
H	-2.061282	-1.226361	0.659357
H	-2.046316	-0.616734	-1.022674
H	-2.056010	0.534442	0.347316
F	-4.571009	-0.451115	0.095474

6
Step 18
C	-1.755421	-0.436871	-0.001709
Cl	0.063221	-0.438860	0.008791
H	-2.049567	-1.246200	0.675443
H	-2.035606	-0.620976	-1.047592
H	-2.044641	0.558594	0.355413
F	-4.496587	-0.450818	0.093564

6
Step 19
C	-1.748405	-0.436844	-0.001941
Cl	0.089667	-0.438724	0.008020
H	-2.063198	-1.236474	0.667237
H	-2.048901	-0.618336	-1.032798
H	-2.058166	0.545900	0.350768
F	-4.489597	-0.450653	0.092623

6
Step 20
C	-1.739836	-0.436860	-0.001859
Cl	0.105496	-0.438614	0.007244
H	-2.073837	-1.231274	0.663738
H	-2.060299	-0.617428	-1.025950
H	-2.069047	0.539503	0.349478
F	-4.481078	-0.450456	0.091259

6
Step 21
C	-1.734493	-0.436893	-0.001627
Cl	0.106248	-0.438498	0.006370
H	-2.077197	-1.229539	0.663175
H	-2.064652	-0.617348	-1.023711
H	-2.072717	0.537424	0.349784
F	-4.475789	-0.450275	0.089919

6
Step 22
C	-1.727313	-0.436965	-0.001107
Cl	0.101680	-0.438269	0.004676
H	-2.079547	-1.227863	0.663221
H	-2.069017	-0.617396	-1.021058
H	-2.075695	0.535303	0.350738
F	-4.468709	-0.449940	0.087440

6
Step 23
C	-1.726599	-0.437001	-0.000831
Cl	0.099249	-0.438182	0.004046
H	-2.078782	-1.228051	0.663731
H	-2.069204	-0.617469	-1.020750
H	-2.075228	0.535389	0.351187
F	-4.468035	-0.449816	0.086527

6
Step 24
C	-1.780400	-0.437196	0.000523
Cl	0.045448	-0.438330	0.005127
H	-2.067391	-1.248266	0.680257
H	-2.058788	-0.621847	-1.046245
H	-2.064166	0.560037	0.359600
F	-4.393303	-0.449529	0.084648

6
Step 25
C	-1.774460	-0.437226	0.000700
Cl	0.072255	-0.438089	0.003581
H	-2.079839	-1.238242	0.672281
H	-2.072193	-0.619239	-1.030638
H	-2.076928	0.546877	0.355360
F	-4.387435	-0.449212	0.082627

6
Step 26
C	-1.767582	-0.437308	0.001284
Cl	0.087355	-0.437835	0.001734
H	-2.088365	-1.234011	0.670122
H	-2.083131	-0.618562	-1.024023
H	-2.086213	0.541400	0.355029
F	-4.380664	-0.448812	0.079763

6
Step 27
C	-1.763262	-0.437388	0.001885
Cl	0.088314	-0.437616	0.000072
H	-2.090518	-1.232775	0.670381
H	-2.087607	-0.618589	-1.021579
H	-2.089087	0.539708	0.355950
F	-4.376439	-0.448471	0.077201

6
Step 28
C	-1.756513	-0.437550	0.003116
Cl	0.084648	-0.437174	-0.003253
H	-2.091639	-1.231381	0.671647
H	-2.093530	-0.618775	-1.017725
H	-2.091697	0.537537	0.358050
F	-4.369869	-0.447787	0.072076

6
Step 29
C	-1.755662	-0.437614	0.003608
Cl	0.082344	-0.437021	-0.004386
H	-2.090598	-1.231533	0.672470
H	-2.094364	-0.618883	-1.016918
H	-2.091241	0.537466	0.358852
F	-4.369079	-0.447545	0.070284

6
Step 30
C	-1.809242	-0.437776	0.004733
Cl	0.028764	-0.437151	-0.003458
H	-2.079482	-1.251995	0.689394
H	-2.084114	-0.623417	-1.043006
H	-2.080410	0.562509	0.367614
F	-4.294117	-0.447298	0.068633

6
Step 31
C	-1.804791	-0.437819	0.005043
Cl	0.056826	-0.436934	-0.004966
H	-2.091270	-1.241513	0.681146
H	-2.097072	-0.620842	-1.027374
H	-2.092569	0.548991	0.363374
F	-4.289724	-0.447014	0.066687

6
Step 32
C	-1.799989	-0.437887	0.005570
Cl	0.071244	-0.436736	-0.006481
H	-2.098353	-1.238240	0.679459
H	-2.106219	-0.620279	-1.022056
H	-2.100290	0.544711	0.363081
F	-4.284993	-0.446699	0.064337

6
Step 33
C	-1.797107	-0.437943	0.006007
Cl	0.072206	-0.436590	-0.007597
H	-2.099831	-1.237530	0.679711
H	-2.109410	-0.620294	-1.020425
H	-2.102293	0.543684	0.363718
F	-4.282165	-0.446457	0.062495

6
Step 34
C	-1.791265	-0.438078	0.007039
Cl	0.069794	-0.436240	-0.010211
H	-2.101074	-1.236361	0.680664
H	-2.114798	-0.620399	-1.017050
H	-2.104815	0.541819	0.365348
F	-4.276442	-0.445872	0.058119

6
Step 35
C	-1.790374	-0.438126	0.007381
Cl	0.067912	-0.436129	-0.010976
H	-2.100420	-1.236366	0.681177
H	-2.115530	-0.620466	-1.016348
H	-2.104602	0.541638	0.365895
F	-4.275585	-0.445680	0.056782

6
Step 36
C	-1.843883	-0.438261	0.008310
Cl	0.014401	-0.436246	-0.010149
H	-2.089423	-1.256994	0.698355
H	-2.105297	-0.625114	-1.042881
H	-2.093853	0.566957	0.374888
F	-4.200545	-0.445472	0.055388

6
Step 37
C	-1.841427	-0.438287	0.008472
Cl	0.045608	-0.436099	-0.011111
H	-2.101253	-1.246061	0.689507
H	-2.117575	-0.622540	-1.027651
H	-2.105840	0.553163	0.370295
F	-4.198112	-0.445307	0.054397

6
Step 38
C	-1.838926	-0.438319	0.008680
Cl	0.060015	-0.435998	-0.011805
H	-2.107354	-1.243521	0.687823
H	-2.124494	-0.622044	-1.023876
H	-2.112206	0.549911	0.369664
F	-4.195634	-0.445159	0.053425

6
Step 39
C	-1.837625	-0.438339	0.008819
Cl	0.060685	-0.435945	-0.012160
H	-2.108185	-1.243290	0.687909
H	-2.125905	-0.622058	-1.023337
H	-2.113222	0.549569	0.369882
F	-4.194348	-0.445066	0.052797

6
Step 40
C	-1.891485	-0.438464	0.009689
Cl	0.006824	-0.436057	-0.011358
H	-2.096850	-1.263808	0.705036
H	-2.115308	-0.626713	-1.049808
H	-2.102124	0.574778	0.378888
F	-4.119656	-0.444866	0.051463

6
Step 41
C	-1.891276	-0.438487	0.009838
Cl	0.045075	-0.435919	-0.012279
H	-2.109643	-1.252591	0.695941
H	-2.128301	-0.624124	-1.034512
H	-2.114992	0.560732	0.374194
F	-4.119463	-0.444740	0.050728

6
Step 42
C	-1.891063	-0.438507	0.009977
Cl	0.059295	-0.435846	-0.012791
H	-2.114328	-1.250431	0.694452
H	-2.133425	-0.623711	-1.031467
H	-2.119815	0.558016	0.373607
F	-4.119264	-0.444651	0.050131

6
Step 43
C	-1.891044	-0.438518	0.010062
Cl	0.059879	-0.435814	-0.013005
H	-2.114391	-1.250505	0.694692
H	-2.133812	-0.623779	-1.031453
H	-2.119977	0.558084	0.373849
F	-4.119254	-0.444598	0.049764

6
Step 44
C	-1.945471	-0.438637	0.010901
Cl	0.005452	-0.435921	-0.012223
H	-2.102507	-1.270601	0.711487
H	-2.122629	-0.628358	-1.057432
H	-2.108317	0.582791	0.382703
F	-4.045127	-0.444403	0.048474

6
Step 45
C	-1.950935	-0.438668	0.011099
Cl	0.057123	-0.435770	-0.013237
H	-2.116034	-1.259410	0.702396
H	-2.136258	-0.625798	-1.042317
H	-2.121893	0.568818	0.378019
F	-4.050604	-0.444301	0.047950

6
Step 46
C	-1.956639	-0.438702	0.011308
Cl	0.073221	-0.435682	-0.013772
H	-2.117419	-1.257410	0.700981
H	-2.138033	-0.625416	-1.039511
H	-2.123411	0.566290	0.377438
F	-4.056320	-0.444211	0.047466

6
Step 47
C	-1.964594	-0.438756	0.011634
Cl	0.082158	-0.435571	-0.014381
H	-2.114749	-1.257798	0.701650
H	-2.136117	-0.625610	-1.039716
H	-2.121004	0.566666	0.378020
F	-4.064294	-0.444061	0.046704

6
Step 48
C	-1.983539	-0.438913	0.012506
Cl	0.092234	-0.435299	-0.015751
H	-2.104485	-1.259985	0.704277
H	-2.128007	-0.626352	-1.041732
H	-2.111516	0.569057	0.379933
F	-4.083287	-0.443639	0.044677

6
Step 49
C	-1.993147	-0.439010	0.012994
Cl	0.091498	-0.435162	-0.016340
H	-2.097174	-1.261873	0.706219
H	-2.122112	-0.626896	-1.043707
H	-2.104745	0.571185	0.381198
F	-4.092920	-0.443373	0.043546

6
Step 50
C	-1.993717	-0.439027	0.013029
Cl	0.088122	-0.435157	-0.016281
H	-2.095497	-1.262538	0.706760
H	-2.120788	-0.627048	-1.044494
H	-2.103227	0.571955	0.381477
F	-4.093493	-0.443315	0.043419

6
Step 51
C	-2.050496	-0.439136	0.013836
Cl	0.031343	-0.435264	-0.015483
H	-2.081330	-1.279947	0.721233
H	-2.107171	-0.631008	-1.067114
H	-2.089233	0.593391	0.389066
F	-4.021714	-0.443167	0.042372

6
Step 52
C	-2.064663	-0.439172	0.014054
Cl	0.116160	-0.435094	-0.016684
H	-2.100229	-1.268311	0.711681
H	-2.125879	-0.628373	-1.051751
H	-2.108107	0.578974	0.384119
F	-4.035882	-0.443154	0.042491

6
Step 53
C	-2.078204	-0.439212	0.014275
Cl	0.129613	-0.435050	-0.016903
H	-2.095657	-1.264507	0.708437
H	-2.121347	-0.627505	-1.046857
H	-2.103579	0.574278	0.382378
F	-4.049426	-0.443133	0.042581

6
Step 54
C	-2.127868	-0.439361	0.015105
Cl	0.166439	-0.434919	-0.017530
H	-2.074606	-1.259745	0.704213
H	-2.100700	-0.626416	-1.040840
H	-2.082767	0.568379	0.380036
F	-4.099097	-0.443068	0.042926

6
Step 55
C	-2.155307	-0.439428	0.015531
Cl	0.184961	-0.434879	-0.017793
H	-2.062365	-1.260893	0.705031
H	-2.088705	-0.626669	-1.042483
H	-2.070646	0.569819	0.380400
F	-4.126538	-0.443080	0.043224

6
Step 56
C	-2.155701	-0.439408	0.015487
Cl	0.185193	-0.434906	-0.017739
H	-2.062206	-1.262901	0.706700
H	-2.088504	-0.627119	-1.045149
H	-2.070453	0.572332	0.381272
F	-4.126930	-0.443129	0.043339

6
Step 57
C	-2.155108	-0.439395	0.015452
Cl	0.183884	-0.434921	-0.017700
H	-2.062202	-1.263337	0.707060
H	-2.088429	-0.627214	-1.045751
H	-2.070410	0.572893	0.381457
F	-4.126335	-0.443155	0.043391

6
Step 58
C	-2.212586	-0.439505	0.016268
Cl	0.160769	-0.434967	-0.017369
H	-2.058759	-1.282960	0.723513
H	-2.085608	-0.631682	-1.071043
H	-2.067161	0.597006	0.390152
F	-4.055255	-0.443022	0.042389

6
Step 59
C	-2.230587	-0.439536	0.016515
Cl	0.232106	-0.434834	-0.018377
H	-2.070874	-1.259805	0.704196
H	-2.096957	-0.626419	-1.041078
H	-2.079032	0.568527	0.379993
F	-4.073256	-0.443064	0.042661

6
Step 60
C	-2.246227	-0.439563	0.016730
Cl	0.266202	-0.434772	-0.018856
H	-2.071882	-1.255685	0.700745
H	-2.097810	-0.625480	-1.035778
H	-2.079988	0.563471	0.378171
F	-4.088895	-0.443102	0.042898

6
Step 61
C	-2.271281	-0.439606	0.017076
Cl	0.304971	-0.434702	-0.019403
H	-2.068158	-1.252784	0.698260
H	-2.093963	-0.624812	-1.032124
H	-2.076222	0.559934	0.376830
F	-4.113948	-0.443159	0.043271

6
Step 62
C	-2.278755	-0.439621	0.017183
Cl	0.310227	-0.434692	-0.019482
H	-2.064933	-1.252433	0.697927
H	-2.090723	-0.624728	-1.031726
H	-2.072993	0.559517	0.376633
F	-4.121422	-0.443173	0.043374

6
Step 63
C	-2.279114	-0.439622	0.017191
Cl	0.306342	-0.434699	-0.019431
H	-2.063396	-1.252507	0.697972
H	-2.089192	-0.624743	-1.031843
H	-2.071459	0.559613	0.376648
F	-4.121782	-0.443172	0.043373

6
Step 64
C	-2.300540	-0.439663	0.017495
Cl	0.284916	-0.434740	-0.019126
H	-2.084822	-1.252548	0.698276
H	-2.110618	-0.624785	-1.031539
H	-2.092886	0.559572	0.376952
F	-4.014650	-0.442966	0.041851

6
Step 65
C	-2.324233	-0.439709	0.017832
Cl	0.352165	-0.434613	-0.020078
H	-2.091461	-1.251148	0.697182
H	-2.117216	-0.624474	-1.029629
H	-2.099513	0.557825	0.376416
F	-4.038342	-0.443012	0.042187

6
Step 66
C	-2.348723	-0.439755	0.018178
Cl	0.385234	-0.434555	-0.020541
H	-2.086208	-1.246993	0.693621
H	-2.111843	-0.623517	-1.024378
H	-2.094227	0.552750	0.374492
F	-4.062833	-0.443062	0.042537

6
Step 67
C	-2.358747	-0.439772	0.018318
Cl	0.387573	-0.434556	-0.020567
H	-2.080331	-1.244581	0.691519
H	-2.105902	-0.622957	-1.021383
H	-2.088335	0.549820	0.373338
F	-4.072857	-0.443084	0.042685

6
Step 68
C	-2.358661	-0.439771	0.018315
Cl	0.380142	-0.434573	-0.020456
H	-2.077912	-1.244263	0.691220
H	-2.103481	-0.622880	-1.021020
H	-2.085919	0.549444	0.373163
F	-4.072770	-0.443087	0.042688

6
Step 69
C	-2.380087	-0.439812	0.018620
Cl	0.358716	-0.434614	-0.020152
H	-2.099338	-1.244304	0.691525
H	-2.124908	-0.622922	-1.020715
H	-2.107345	0.549402	0.373467
F	-3.965638	-0.442880	0.041165

6
Step 70
C	-2.399847	-0.439849	0.018899
Cl	0.420769	-0.434501	-0.021024
H	-2.106868	-1.242638	0.690216
H	-2.132393	-0.622551	-1.018452
H	-2.114864	0.547328	0.372823
F	-3.985398	-0.442920	0.041449

6
Step 71
C	-2.412540	-0.439871	0.019075
Cl	0.433786	-0.434484	-0.021196
H	-2.102771	-1.239935	0.687890
H	-2.128230	-0.621925	-1.015057
H	-2.110754	0.544037	0.371560
F	-3.998091	-0.442951	0.041639

6
Step 72
C	-2.419383	-0.439881	0.019168
Cl	0.427002	-0.434507	-0.021084
H	-2.095964	-1.237702	0.685923
H	-2.121378	-0.621403	-1.012315
H	-2.103943	0.541336	0.370469
F	-4.004933	-0.442973	0.041749

6
Step 73
C	-2.418712	-0.439878	0.019156
Cl	0.418217	-0.434530	-0.020951
H	-2.093478	-1.237434	0.685665
H	-2.118899	-0.621336	-1.012021
H	-2.101465	0.541024	0.370315
F	-4.004263	-0.442976	0.041746

6
Step 74
C	-2.440139	-0.439920	0.019461
Cl	0.396790	-0.434571	-0.020647
H	-2.114904	-1.237476	0.685970
H	-2.140326	-0.621378	-1.011715
H	-2.122891	0.540983	0.370620
F	-3.897131	-0.442767	0.040220

6
Step 75
C	-2.456709	-0.439950	0.019694
Cl	0.454225	-0.434469	-0.021450
H	-2.123018	-1.235723	0.684597
H	-2.148398	-0.620988	-1.009336
H	-2.130998	0.538804	0.369943
F	-3.913702	-0.442804	0.040462

6
Step 76
C	-2.463158	-0.439960	0.019781
Cl	0.457760	-0.434473	-0.021485
H	-2.119908	-1.233961	0.683073
H	-2.145257	-0.620577	-1.007137
H	-2.127888	0.536666	0.369112
F	-3.920150	-0.442825	0.040566

6
Step 77
C	-2.468286	-0.439965	0.019847
Cl	0.446883	-0.434513	-0.021302
H	-2.112865	-1.231901	0.681246
H	-2.138197	-0.620090	-1.004633
H	-2.120859	0.534188	0.368091
F	-3.925277	-0.442851	0.040662

6
Step 78
C	-2.467553	-0.439961	0.019834
Cl	0.440523	-0.434533	-0.021200
H	-2.111223	-1.231795	0.681134
H	-2.136572	-0.620061	-1.004536
H	-2.119230	0.534075	0.368018
F	-3.924545	-0.442855	0.040661

6
Step 79
C	-2.488980	-0.440004	0.020140
Cl	0.419096	-0.434574	-0.020896
H	-2.132648	-1.231838	0.681440
H	-2.157999	-0.620103	-1.004230
H	-2.140657	0.534032	0.368325
F	-3.817413	-0.442644	0.039131

6
Step 80
C	-2.504530	-0.440031	0.020357
Cl	0.471311	-0.434486	-0.021619
H	-2.139692	-1.230498	0.680398
H	-2.165023	-0.619803	-1.002405
H	-2.147703	0.532370	0.367815
F	-3.832963	-0.442682	0.039363

6
Step 81
C	-2.511077	-0.440040	0.020445
Cl	0.473903	-0.434498	-0.021631
H	-2.136195	-1.228551	0.678712
H	-2.161504	-0.619347	-0.999985
H	-2.144216	0.530015	0.366892
F	-3.839510	-0.442709	0.039477

6
Step 82
C	-2.514001	-0.440040	0.020479
Cl	0.460960	-0.434547	-0.021413
H	-2.129922	-1.226671	0.677044
H	-2.155235	-0.618899	-0.997708
H	-2.137970	0.527763	0.365959
F	-3.842432	-0.442736	0.039549

6
Step 83
C	-2.513181	-0.440036	0.020463
Cl	0.454417	-0.434572	-0.021303
H	-2.128270	-1.226522	0.676895
H	-2.153612	-0.618858	-0.997563
H	-2.136341	0.527603	0.365865
F	-3.841613	-0.442744	0.039552

6
Step 84
C	-2.534608	-0.440080	0.020772
Cl	0.432991	-0.434613	-0.020998
H	-2.149694	-1.226566	0.677203
H	-2.175040	-0.618902	-0.997255
H	-2.157768	0.527559	0.366173
F	-3.734481	-0.442528	0.038015

6
Step 85
C	-2.552635	-0.440112	0.021024
Cl	0.477644	-0.434546	-0.021605
H	-2.152529	-1.227383	0.677920
H	-2.177936	-0.619085	-0.998285
H	-2.160637	0.528572	0.366565
F	-3.752508	-0.442576	0.038292

6
Step 86
C	-2.563564	-0.440129	0.021173
Cl	0.478032	-0.434575	-0.021569
H	-2.145382	-1.223611	0.674647
H	-2.170743	-0.618199	-0.993598
H	-2.153507	0.524008	0.364771
F	-3.763436	-0.442624	0.038485

6
Step 87
C	-2.565153	-0.440128	0.021190
Cl	0.464918	-0.434624	-0.021348
H	-2.139948	-1.221017	0.672390
H	-2.165295	-0.617590	-0.990391
H	-2.148096	0.520877	0.363530
F	-3.765025	-0.442649	0.038539

6
Step 88
C	-2.564334	-0.440123	0.021174
Cl	0.459281	-0.434653	-0.021243
H	-2.138591	-1.220653	0.672062
H	-2.163977	-0.617499	-0.989973
H	-2.146773	0.520459	0.363343
F	-3.764206	-0.442662	0.038547
