
                                 *****************
                                 * O   R   C   A *
                                 *****************

           --- An Ab Initio, DFT and Semiempirical electronic structure package ---

                  #######################################################
                  #                        -***-                        #
                  #  Department of molecular theory and spectroscopy    #
                  #              Directorship: Frank Neese              #
                  # Max Planck Institute for Chemical Energy Conversion #
                  #                  D-45470 Muelheim/Ruhr              #
                  #                       Germany                       #
                  #                                                     #
                  #                  All rights reserved                #
                  #                        -***-                        #
                  #######################################################


                         Program Version 3.0.1 -  RELEASE  -


 With contributions from (in alphabetic order):
   Ute Becker             : Parallelization
   Dmytro Bykov           : SCF Hessian
   Dmitry Ganyushin       : Spin-Orbit,Spin-Spin,Magnetic field MRCI
   Andreas Hansen         : Spin unrestricted coupled pair/coupled cluster methods
   Dimitrios Liakos       : Extrapolation schemes; parallel MDCI
   Robert Izsak           : Overlap fitted RIJCOSX, COSX-SCS-MP3
   Christian Kollmar      : KDIIS, OOCD, Brueckner-CCSD(T), CCSD density
   Simone Kossmann        : Meta GGA functionals, TD-DFT gradient, OOMP2, MP2 Hessian
   Taras Petrenko         : DFT Hessian,TD-DFT gradient, ASA and ECA modules, normal mode analysis, Resonance Raman, ABS, FL, XAS/XES, NRVS
   Christoph Reimann      : Effective Core Potentials
   Michael Roemelt        : Restricted open shell CIS
   Christoph Riplinger    : Improved optimizer, TS searches, QM/MM, DLPNO-CCSD
   Barbara Sandhoefer     : DKH picture change effects
   Igor Schapiro          : Molecular dynamics
   Kantharuban Sivalingam : CASSCF convergence, NEVPT2
   Boris Wezisla          : Elementary symmetry handling
   Frank Wennmohs         : Technical directorship


 We gratefully acknowledge several colleagues who have allowed us to
 interface, adapt or use parts of their codes:
   Stefan Grimme, W. Hujo, H. Kruse, T. Risthaus : VdW corrections, initial TS optimization,
                                                   DFT functionals, gCP
   Ed Valeev                                     : LibInt (2-el integral package), F12 methods
   Garnet Chan, S. Sharma, R. Olivares           : DMRG
   Ulf Ekstrom                                   : XCFun DFT Library
   Mihaly Kallay                                 : mrcc  (arbitrary order and MRCC methods)
   Andreas Klamt, Michael Diedenhofen            : otool_cosmo (COSMO solvation model)
   Frank Weinhold                                : gennbo (NPA and NBO analysis)


 Your calculation uses the libint2 library for the computation of 2-el integrals
 For citations please refer to: http://libint.valeyev.net

 This ORCA versions uses:
   CBLAS   interface :  Fast vector & matrix operations
   LAPACKE interface :  Fast linear algebra routines
   SCALAPACK package :  Parallel linear algebra routines


Your calculation utilizes the basis: 6-311G
Cite in your paper:
H, Li - Ne: R. Krishnan, J.S. Binkley, R. Seeger and J.A. Pople,
            J. Chem. Phys. 72, 650 (1980)
Na - Ar:    A.D. McLean and G.S. Chandler J. Chem. Phys. 72, 5639, (1980).
K  - Ca:    J-P. Blaudeau, M. P. McGrath, L.A. Curtiss and L. Radom,
            J. Chem. Phys. 107, 5016 (1997).
Ga - Kr:    L. A. Curtiss, M. P. McGrath, J-P. Blandeau, N. E. Davis,
            R. C. Binning, Jr. L. Radom, J. Chem. Phys. 103, 6104 (1995).

Your calculation utilizes diff. fcns from basis: 6-311++G(2d,2p)
Cite in your paper:
H, Li - Ne: R. Krishnan, J.S. Binkley, R. Seeger and J.A. Pople,
            J. Chem. Phys. 72, 650 (1980)
Na - Ar:    A.D. McLean and G.S. Chandler J. Chem. Phys. 72, 5639, (1980).
K  - Ca:    J-P. Blaudeau, M. P. McGrath, L.A. Curtiss and L. Radom,
            J. Chem. Phys. 107, 5016 (1997).
Ga - Kr:    L. A. Curtiss, M. P. McGrath, J-P. Blandeau, N. E. Davis,
            R. C. Binning, Jr. L. Radom, J. Chem. Phys. 103, 6104 (1995).
H - Ar:  R. Krishnan, J.S. Binkley, R. Seeger, J.A. Pople, J. Chem. Phys. 72,650 (1980)
H, Li-Cl: T. Clark, J. Chandrasekhar, P.V.R. Schleyer, J. Comp. Chem. 4, 294 (1983)

Your calculation utilizes pol. fcns from basis: 6-311++G(d,p)
Cite in your paper:
H, Li - Ne: R. Krishnan, J.S. Binkley, R. Seeger and J.A. Pople,
            J. Chem. Phys. 72, 650 (1980)
Na - Ar:    A.D. McLean and G.S. Chandler J. Chem. Phys. 72, 5639, (1980).
K  - Ca:    J-P. Blaudeau, M. P. McGrath, L.A. Curtiss and L. Radom,
            J. Chem. Phys. 107, 5016 (1997).
Ga - Kr:    L. A. Curtiss, M. P. McGrath, J-P. Blandeau, N. E. Davis,
            R. C. Binning, Jr. L. Radom, J. Chem. Phys. 103, 6104 (1995).
H - Ar:  R. Krishnan, J.S. Binkley, R. Seeger, J.A. Pople, J. Chem. Phys. 72,650 (1980)
H, Li-Cl: T. Clark, J. Chandrasekhar, P.V.R. Schleyer, J. Comp. Chem. 4, 294 (1983)

================================================================================
                                        WARNINGS
                       Please study these warnings very carefully!
================================================================================
Now building the actual basis set

WARNING: The environment variable RSH_COMMAND is not set!
  ===> : All Displacements for the Numerical Hessian calculation
         will be started on localhost

WARNING: Geometry Optimization
  ===> : Switching off AutoStart
         For restart on a previous wavefunction, please use MOREAD


INFO   : the flag for use of LIBINT has been found!

================================================================================
                                       INPUT FILE
================================================================================
NAME = input.dat
|  1> % pal nprocs 24 end
|  2> 
|  3> ! Opt B3LYP 6-311++G** VeryTightSCF TightOpt Grid4
|  4> 
|  5> ! Cosmo(Acetonitrile)
|  6> 
|  7> *	xyz	0	1
|  8> 	C	4.385543	-2.668967	3.178983
|  9> 	C	3.054815	-2.637416	2.983490
| 10> 	N	4.623073	-3.352172	4.379314
| 11> 	C	3.419292	-3.729125	4.905396
| 12> 	N	2.449038	-3.305543	4.054123
| 13> 	C	5.918565	-3.623529	4.921200
| 14> 	C	6.808245	-2.624891	5.246120
| 15> 	C	8.198624	-2.844829	5.147742
| 16> 	C	8.594505	-3.943563	4.337087
| 17> 	C	7.711313	-4.933210	3.999223
| 18> 	N	6.459284	-4.957310	4.738366
| 19> 	C	1.001952	-3.550661	4.101477
| 20> 	H	9.572204	-3.939933	3.858722
| 21> 	H	7.826220	-5.610865	3.164347
| 22> 	H	8.904984	-2.073431	5.428988
| 23> 	H	6.417743	-1.635448	5.474031
| 24> 	H	0.798716	-4.620443	4.133238
| 25> 	H	0.580176	-3.139876	3.185297
| 26> 	H	0.547600	-3.062633	4.960528
| 27> 	H	5.202509	-2.276894	2.599186
| 28> 	H	2.463137	-2.210494	2.191888
| 29> 	C	5.239691	-6.962881	7.404057
| 30> 	C	6.157939	-7.790815	6.873591
| 31> 	N	5.265693	-5.770884	6.667529
| 32> 	C	6.212520	-5.890141	5.689112
| 33> 	N	6.760841	-7.128294	5.797847
| 34> 	C	4.411102	-4.648211	6.901599
| 35> 	C	4.388538	-3.973047	8.100715
| 36> 	C	3.201149	-3.360962	8.555341
| 37> 	C	1.999248	-3.817718	7.948832
| 38> 	C	2.015699	-4.501366	6.763075
| 39> 	N	3.268160	-4.477400	6.024525
| 40> 	C	7.738744	-7.789503	4.924391
| 41> 	H	1.058207	-3.749817	8.491584
| 42> 	H	1.219778	-5.137537	6.400814
| 43> 	H	3.182961	-2.803968	9.484065
| 44> 	H	5.270219	-4.014287	8.736584
| 45> 	H	7.376815	-7.811488	3.897134
| 46> 	H	8.704225	-7.290737	4.965375
| 47> 	H	7.843169	-8.812809	5.282100
| 48> 	H	4.564116	-7.081818	8.232777
| 49> 	H	6.452950	-8.790475	7.143065
| 50> *
| 51> 
| 52> ! NumFreq VeryTightSCF Grid4
| 53> 
| 54>                          ****END OF INPUT****
================================================================================

                       *****************************
                       * Geometry Optimization Run *
                       *****************************

Geometry optimization settings:
Update method            Update   .... BFGS
Choice of coordinates    CoordSys .... Redundant Internals
Initial Hessian          InHess   .... Almoef's Model

Convergence Tolerances:
Energy Change            TolE     ....  1.0000e-06 Eh
Max. Gradient            TolMAXG  ....  1.0000e-04 Eh/bohr
RMS Gradient             TolRMSG  ....  3.0000e-05 Eh/bohr
Max. Displacement        TolMAXD  ....  1.0000e-03 bohr
RMS Displacement         TolRMSD  ....  6.0000e-04 bohr

------------------------------------------------------------------------------
                        ORCA OPTIMIZATION COORDINATE SETUP
------------------------------------------------------------------------------

The optimization will be done in new redundant internal coordinates
Making redundant internal coordinates   ...  (new redundants) done
Evaluating the initial hessian          ...  (Almloef) done
Evaluating the coordinates              ...  done
Calculating the B-matrix                .... done
Calculating the G-matrix                .... done
Diagonalizing the G-matrix              .... done
Small eigenvalue found = 1.335e-02
Small eigenvalue found = 1.849e-02
Small eigenvalue found = 2.113e-02
Small eigenvalue found = 2.490e-02
The first mode is                       ....  120
The number of degrees of freedom        ....  120

    -----------------------------------------------------------------
                    Redundant Internal Coordinates


    -----------------------------------------------------------------
         Definition                    Initial Value    Approx d2E/dq
    -----------------------------------------------------------------
      1. B(C   1,C   0)                  1.3454         0.736081   
      2. B(N   2,C   0)                  1.4014         0.536602   
      3. B(C   3,N   2)                  1.3667         0.609544   
      4. B(N   4,C   1)                  1.3999         0.539686   
      5. B(N   4,C   3)                  1.3585         0.628285   
      6. B(C   5,N   2)                  1.4302         0.482705   
      7. B(C   6,C   5)                  1.3764         0.656889   
      8. B(C   7,C   6)                  1.4111         0.578195   
      9. B(C   8,C   7)                  1.4217         0.556207   
     10. B(C   9,C   8)                  1.3688         0.675430   
     11. B(N  10,C   9)                  1.4541         0.442143   
     12. B(N  10,C   5)                  1.4508         0.447607   
     13. B(C  11,N   4)                  1.4685         0.419462   
     14. B(H  12,C   8)                  1.0885         0.362145   
     15. B(H  13,C   9)                  1.0814         0.371651   
     16. B(H  14,C   7)                  1.0831         0.369349   
     17. B(H  15,C   6)                  1.0879         0.362946   
     18. B(H  16,C  11)                  1.0894         0.360922   
     19. B(H  17,C  11)                  1.0890         0.361362   
     20. B(H  18,C  11)                  1.0875         0.363472   
     21. B(H  19,C   0)                  1.0758         0.379400   
     22. B(H  20,C   1)                  1.0766         0.378327   
     23. B(C  22,C  21)                  1.3454         0.736082   
     24. B(N  23,C  21)                  1.4014         0.536586   
     25. B(C  24,N  23)                  1.3667         0.609496   
     26. B(C  24,N  10)                  1.3546         0.637278   
     27. B(N  25,C  24)                  1.3585         0.628266   
     28. B(N  25,C  22)                  1.3999         0.539660   
     29. B(C  26,N  23)                  1.4302         0.482745   
     30. B(C  27,C  26)                  1.3763         0.657017   
     31. B(C  28,C  27)                  1.4111         0.578179   
     32. B(C  29,C  28)                  1.4216         0.556247   
     33. B(C  30,C  29)                  1.3688         0.675355   
     34. B(N  31,C  30)                  1.4542         0.442031   
     35. B(N  31,C  26)                  1.4508         0.447621   
     36. B(N  31,C   3)                  1.3547         0.637086   
     37. B(C  32,N  25)                  1.4685         0.419445   
     38. B(H  33,C  29)                  1.0885         0.362141   
     39. B(H  34,C  30)                  1.0814         0.371651   
     40. B(H  35,C  28)                  1.0831         0.369347   
     41. B(H  36,C  27)                  1.0878         0.362971   
     42. B(H  37,C  32)                  1.0894         0.360931   
     43. B(H  38,C  32)                  1.0875         0.363456   
     44. B(H  39,C  32)                  1.0890         0.361368   
     45. B(H  40,C  21)                  1.0758         0.379397   
     46. B(H  41,C  22)                  1.0766         0.378334   
     47. A(N   2,C   0,H  19)          120.7022         0.345329   
     48. A(C   1,C   0,N   2)          107.6701         0.433337   
     49. A(C   1,C   0,H  19)          131.6272         0.366623   
     50. A(C   0,C   1,H  20)          131.2816         0.366445   
     51. A(C   0,C   1,N   4)          107.8004         0.433784   
     52. A(N   4,C   1,H  20)          120.9179         0.345497   
     53. A(C   0,N   2,C   3)          108.3525         0.416230   
     54. A(C   3,N   2,C   5)          126.8434         0.408483   
     55. A(C   0,N   2,C   5)          124.7873         0.399399   
     56. A(N   2,C   3,N   4)          107.5696         0.428124   
     57. A(N   4,C   3,N  31)          127.6052         0.431533   
     58. A(N   2,C   3,N  31)          124.6520         0.429193   
     59. A(C   1,N   4,C  11)          122.0577         0.390078   
     60. A(C   3,N   4,C  11)          129.1658         0.400617   
     61. A(C   1,N   4,C   3)          108.6028         0.418908   
     62. A(C   6,C   5,N  10)          117.1215         0.411084   
     63. A(N   2,C   5,N  10)          117.6633         0.386917   
     64. A(N   2,C   5,C   6)          122.4989         0.416635   
     65. A(C   7,C   6,H  15)          120.6679         0.349235   
     66. A(C   5,C   6,H  15)          118.5123         0.356861   
     67. A(C   5,C   6,C   7)          120.4881         0.433129   
     68. A(C   8,C   7,H  14)          121.1247         0.347985   
     69. A(C   6,C   7,H  14)          120.8958         0.350267   
     70. A(C   6,C   7,C   8)          115.7592         0.420411   
     71. A(C   7,C   8,C   9)          121.3226         0.432278   
     72. A(C   7,C   8,H  12)          119.8781         0.346833   
     73. A(C   9,C   8,H  12)          118.2623         0.358419   
     74. A(C   8,C   9,N  10)          116.2363         0.412220   
     75. A(N  10,C   9,H  13)          118.2637         0.333195   
     76. A(C   8,C   9,H  13)          125.1046         0.360003   
     77. A(C   5,N  10,C   9)          111.6990         0.381057   
     78. A(C   9,N  10,C  24)          121.6695         0.405369   
     79. A(C   5,N  10,C  24)          118.4733         0.406250   
     80. A(H  17,C  11,H  18)          109.4799         0.291426   
     81. A(H  16,C  11,H  18)          109.8601         0.291370   
     82. A(N   4,C  11,H  18)          111.2409         0.329089   
     83. A(H  16,C  11,H  17)          108.8254         0.291104   
     84. A(N   4,C  11,H  17)          106.9514         0.328773   
     85. A(N   4,C  11,H  16)          110.4081         0.328707   
     86. A(N  23,C  21,H  40)          120.6999         0.345327   
     87. A(C  22,C  21,H  40)          131.6291         0.366623   
     88. A(C  22,C  21,N  23)          107.6705         0.433335   
     89. A(C  21,C  22,N  25)          107.8000         0.433780   
     90. A(N  25,C  22,H  41)          120.9173         0.345495   
     91. A(C  21,C  22,H  41)          131.2826         0.366447   
     92. A(C  24,N  23,C  26)          126.8409         0.408484   
     93. A(C  21,N  23,C  26)          124.7894         0.399403   
     94. A(C  21,N  23,C  24)          108.3528         0.416222   
     95. A(N  23,C  24,N  25)          107.5683         0.428115   
     96. A(N  10,C  24,N  25)          127.6098         0.431554   
     97. A(N  10,C  24,N  23)          124.6491         0.429210   
     98. A(C  24,N  25,C  32)          129.1654         0.400612   
     99. A(C  22,N  25,C  32)          122.0587         0.390072   
    100. A(C  22,N  25,C  24)          108.6038         0.418903   
    101. A(C  27,C  26,N  31)          117.1323         0.411101   
    102. A(N  23,C  26,N  31)          117.6597         0.386924   
    103. A(N  23,C  26,C  27)          122.5110         0.416655   
    104. A(C  26,C  27,C  28)          120.4828         0.433142   
    105. A(C  28,C  27,H  36)          120.6716         0.349238   
    106. A(C  26,C  27,H  36)          118.5147         0.356877   
    107. A(C  27,C  28,C  29)          115.7590         0.420415   
    108. A(C  29,C  28,H  35)          121.1212         0.347988   
    109. A(C  27,C  28,H  35)          120.8941         0.350265   
    110. A(C  30,C  29,H  33)          118.2618         0.358411   
    111. A(C  28,C  29,H  33)          119.8779         0.346836   
    112. A(C  28,C  29,C  30)          121.3240         0.432275   
    113. A(C  29,C  30,H  34)          125.1107         0.359997   
    114. A(C  29,C  30,N  31)          116.2362         0.412193   
    115. A(N  31,C  30,H  34)          118.2594         0.333181   
    116. A(C  26,N  31,C  30)          111.6875         0.381042   
    117. A(C   3,N  31,C  30)          121.6513         0.405330   
    118. A(C   3,N  31,C  26)          118.4618         0.406231   
    119. A(H  38,C  32,H  39)          109.4784         0.291425   
    120. A(H  37,C  32,H  39)          108.8219         0.291105   
    121. A(N  25,C  32,H  39)          106.9522         0.328772   
    122. A(H  37,C  32,H  38)          109.8623         0.291369   
    123. A(N  25,C  32,H  38)          111.2413         0.329085   
    124. A(N  25,C  32,H  37)          110.4097         0.328706   
    125. D(H  20,C   1,C   0,H  19)      0.0860         0.038502   
    126. D(H  20,C   1,C   0,N   2)    179.8044         0.038502   
    127. D(N   4,C   1,C   0,N   2)     -0.3078         0.038502   
    128. D(N   4,C   1,C   0,H  19)    179.9737         0.038502   
    129. D(C   3,N   2,C   0,H  19)    179.6340         0.022893   
    130. D(C   3,N   2,C   0,C   1)     -0.1213         0.022893   
    131. D(C   5,N   2,C   0,C   1)    178.4737         0.022893   
    132. D(C   5,N   2,C   0,H  19)     -1.7711         0.022893   
    133. D(N   4,C   3,N   2,C   5)   -178.0452         0.030008   
    134. D(N  31,C   3,N   2,C   5)     -2.5218         0.030008   
    135. D(N  31,C   3,N   2,C   0)    176.0362         0.030008   
    136. D(N   4,C   3,N   2,C   0)      0.5129         0.030008   
    137. D(C  11,N   4,C   1,C   0)   -174.9842         0.023169   
    138. D(C   3,N   4,C   1,H  20)   -179.4647         0.023169   
    139. D(C   3,N   4,C   1,C   0)      0.6336         0.023169   
    140. D(C  11,N   4,C   1,H  20)      4.9175         0.023169   
    141. D(C  11,N   4,C   3,N  31)     -0.8453         0.032032   
    142. D(C  11,N   4,C   3,N   2)    174.5060         0.032032   
    143. D(C   1,N   4,C   3,N   2)     -0.7029         0.032032   
    144. D(C   1,N   4,C   3,N  31)   -176.0542         0.032032   
    145. D(N  10,C   5,N   2,C   3)     77.3540         0.018385   
    146. D(N  10,C   5,N   2,C   0)   -100.9795         0.018385   
    147. D(C   6,C   5,N   2,C   3)   -121.8735         0.018385   
    148. D(C   6,C   5,N   2,C   0)     59.7930         0.018385   
    149. D(H  15,C   6,C   5,N  10)   -174.7089         0.030089   
    150. D(C   7,C   6,C   5,N  10)     11.8594         0.030089   
    151. D(H  15,C   6,C   5,N   2)     24.4210         0.030089   
    152. D(C   7,C   6,C   5,N   2)   -149.0107         0.030089   
    153. D(H  14,C   7,C   6,C   5)   -178.2150         0.022962   
    154. D(C   8,C   7,C   6,H  15)   -154.7578         0.022962   
    155. D(C   8,C   7,C   6,C   5)     18.5314         0.022962   
    156. D(H  14,C   7,C   6,H  15)      8.4957         0.022962   
    157. D(H  12,C   8,C   7,H  14)     -9.7445         0.021180   
    158. D(C   9,C   8,C   7,H  14)    178.8064         0.021180   
    159. D(C   9,C   8,C   7,C   6)    -17.9815         0.021180   
    160. D(H  12,C   8,C   7,C   6)    153.4676         0.021180   
    161. D(H  13,C   9,C   8,H  12)    -11.9527         0.031945   
    162. D(N  10,C   9,C   8,H  12)    175.4195         0.031945   
    163. D(N  10,C   9,C   8,C   7)    -12.9974         0.031945   
    164. D(H  13,C   9,C   8,C   7)    159.6303         0.031945   
    165. D(C  24,N  10,C   9,H  13)     80.8714         0.015395   
    166. D(C   5,N  10,C   9,H  13)   -131.0954         0.015395   
    167. D(C   5,N  10,C   9,C   8)     42.0595         0.015395   
    168. D(C  24,N  10,C   5,C   6)    107.4310         0.015778   
    169. D(C  24,N  10,C   5,N   2)    -90.7526         0.015778   
    170. D(C  24,N  10,C   9,C   8)   -105.9737         0.015395   
    171. D(C   9,N  10,C   5,C   6)    -41.7322         0.015778   
    172. D(C   9,N  10,C   5,N   2)    120.0842         0.015778   
    173. D(H  18,C  11,N   4,C   3)     66.7304         0.015003   
    174. D(H  17,C  11,N   4,C   3)   -173.7639         0.015003   
    175. D(H  18,C  11,N   4,C   1)   -118.6289         0.015003   
    176. D(H  17,C  11,N   4,C   1)      0.8767         0.015003   
    177. D(H  16,C  11,N   4,C   3)    -55.5127         0.015003   
    178. D(H  16,C  11,N   4,C   1)    119.1279         0.015003   
    179. D(H  41,C  22,C  21,H  40)      0.0839         0.038503   
    180. D(H  41,C  22,C  21,N  23)    179.8071         0.038503   
    181. D(N  25,C  22,C  21,H  40)    179.9703         0.038503   
    182. D(N  25,C  22,C  21,N  23)     -0.3065         0.038503   
    183. D(C  26,N  23,C  21,H  40)     -1.7738         0.022891   
    184. D(C  26,N  23,C  21,C  22)    178.4667         0.022891   
    185. D(C  24,N  23,C  21,H  40)    179.6349         0.022891   
    186. D(C  24,N  23,C  21,C  22)     -0.1245         0.022891   
    187. D(N  23,C  24,N  10,C   5)     14.6325         0.033032   
    188. D(N  25,C  24,N  23,C  26)   -178.0376         0.030002   
    189. D(N  25,C  24,N  23,C  21)      0.5167         0.030002   
    190. D(N  10,C  24,N  23,C  26)     -2.5089         0.030002   
    191. D(N  10,C  24,N  23,C  21)    176.0455         0.030002   
    192. D(N  25,C  24,N  10,C   9)    -24.7791         0.033032   
    193. D(N  25,C  24,N  10,C   5)   -170.7509         0.033032   
    194. D(N  23,C  24,N  10,C   9)    160.6042         0.033032   
    195. D(C  32,N  25,C  24,N  23)    174.5243         0.032030   
    196. D(C  32,N  25,C  24,N  10)     -0.8321         0.032030   
    197. D(C  22,N  25,C  24,N  23)     -0.7059         0.032030   
    198. D(C  22,N  25,C  24,N  10)   -176.0624         0.032030   
    199. D(C  32,N  25,C  22,H  41)      4.8979         0.023167   
    200. D(C  32,N  25,C  22,C  21)   -175.0027         0.023167   
    201. D(C  24,N  25,C  22,H  41)   -179.4648         0.023167   
    202. D(C  24,N  25,C  22,C  21)      0.6346         0.023167   
    203. D(N  31,C  26,N  23,C  24)     77.3620         0.018389   
    204. D(N  31,C  26,N  23,C  21)   -100.9672         0.018389   
    205. D(C  27,C  26,N  23,C  24)   -121.7973         0.018389   
    206. D(C  27,C  26,N  23,C  21)     59.8735         0.018389   
    207. D(H  36,C  27,C  26,N  31)   -174.6924         0.030102   
    208. D(H  36,C  27,C  26,N  23)     24.3721         0.030102   
    209. D(C  28,C  27,C  26,N  31)     11.8682         0.030102   
    210. D(C  28,C  27,C  26,N  23)   -149.0673         0.030102   
    211. D(H  35,C  28,C  27,H  36)      8.4662         0.022960   
    212. D(H  35,C  28,C  27,C  26)   -178.2368         0.022960   
    213. D(C  29,C  28,C  27,H  36)   -154.7669         0.022960   
    214. D(C  29,C  28,C  27,C  26)     18.5301         0.022960   
    215. D(H  33,C  29,C  28,H  35)     -9.7194         0.021184   
    216. D(H  33,C  29,C  28,C  27)    153.4726         0.021184   
    217. D(C  30,C  29,C  28,H  35)    178.8259         0.021184   
    218. D(C  30,C  29,C  28,C  27)    -17.9822         0.021184   
    219. D(H  34,C  30,C  29,H  33)    -11.9458         0.031937   
    220. D(H  34,C  30,C  29,C  28)    159.6429         0.031937   
    221. D(N  31,C  30,C  29,H  33)    175.4109         0.031937   
    222. D(N  31,C  30,C  29,C  28)    -13.0004         0.031937   
    223. D(C  26,N  31,C  30,H  34)   -131.1084         0.015387   
    224. D(C  26,N  31,C  30,C  29)     42.0618         0.015387   
    225. D(C   3,N  31,C  30,H  34)     80.9347         0.015387   
    226. D(C   3,N  31,C  30,C  29)   -105.8951         0.015387   
    227. D(C  30,N  31,C  26,C  27)    -41.7402         0.015779   
    228. D(C  30,N  31,C  26,N  23)    120.1412         0.015779   
    229. D(C   3,N  31,C  26,C  27)    107.3470         0.015779   
    230. D(C   3,N  31,C  26,N  23)    -90.7716         0.015779   
    231. D(C  30,N  31,C   3,N   4)    -24.8495         0.033011   
    232. D(C  30,N  31,C   3,N   2)    160.5400         0.033011   
    233. D(C  26,N  31,C   3,N   4)   -170.7398         0.033011   
    234. D(C  26,N  31,C   3,N   2)     14.6497         0.033011   
    235. D(H  39,C  32,N  25,C  24)   -173.7631         0.015002   
    236. D(H  39,C  32,N  25,C  22)      0.9014         0.015002   
    237. D(H  38,C  32,N  25,C  24)     66.7324         0.015002   
    238. D(H  38,C  32,N  25,C  22)   -118.6031         0.015002   
    239. D(H  37,C  32,N  25,C  24)    -55.5148         0.015002   
    240. D(H  37,C  32,N  25,C  22)    119.1497         0.015002   
    -----------------------------------------------------------------

Number of atoms                         .... 42
Number of degrees of freedom            .... 240

         *************************************************************
         *                GEOMETRY OPTIMIZATION CYCLE   1            *
         *************************************************************
---------------------------------
CARTESIAN COORDINATES (ANGSTROEM)
---------------------------------
  C      4.385543   -2.668967    3.178983
  C      3.054815   -2.637416    2.983490
  N      4.623073   -3.352172    4.379314
  C      3.419292   -3.729125    4.905396
  N      2.449038   -3.305543    4.054123
  C      5.918565   -3.623529    4.921200
  C      6.808245   -2.624891    5.246120
  C      8.198624   -2.844829    5.147742
  C      8.594505   -3.943563    4.337087
  C      7.711313   -4.933210    3.999223
  N      6.459284   -4.957310    4.738366
  C      1.001952   -3.550661    4.101477
  H      9.572204   -3.939933    3.858722
  H      7.826220   -5.610865    3.164347
  H      8.904984   -2.073431    5.428988
  H      6.417743   -1.635448    5.474031
  H      0.798716   -4.620443    4.133238
  H      0.580176   -3.139876    3.185297
  H      0.547600   -3.062633    4.960528
  H      5.202509   -2.276894    2.599186
  H      2.463137   -2.210494    2.191888
  C      5.239691   -6.962881    7.404057
  C      6.157939   -7.790815    6.873591
  N      5.265693   -5.770884    6.667529
  C      6.212520   -5.890141    5.689112
  N      6.760841   -7.128294    5.797847
  C      4.411102   -4.648211    6.901599
  C      4.388538   -3.973047    8.100715
  C      3.201149   -3.360962    8.555341
  C      1.999248   -3.817718    7.948832
  C      2.015699   -4.501366    6.763075
  N      3.268160   -4.477400    6.024525
  C      7.738744   -7.789503    4.924391
  H      1.058207   -3.749817    8.491584
  H      1.219778   -5.137537    6.400814
  H      3.182961   -2.803968    9.484065
  H      5.270219   -4.014287    8.736584
  H      7.376815   -7.811488    3.897134
  H      8.704225   -7.290737    4.965375
  H      7.843169   -8.812809    5.282100
  H      4.564116   -7.081818    8.232777
  H      6.452950   -8.790475    7.143065

----------------------------
CARTESIAN COORDINATES (A.U.)
----------------------------
  NO LB      ZA    FRAG    MASS        X           Y           Z
   0 C     6.0000    0    12.011          8.287475218535407         -5.043616690473401          6.007407254391382
   1 C     6.0000    0    12.011          5.772763739794648         -4.983993941222052          5.637979023292716
   2 N     7.0000    0    14.007          8.736341867125722         -6.334687033799070          8.275704114447212
   3 C     6.0000    0    12.011          6.461525451907865         -7.047024969159088          9.269855018432771
   4 N     7.0000    0    14.007          4.628011111566234         -6.246570993900456          7.661182183231226
   5 C     6.0000    0    12.011         11.184466955811633         -6.847477448321539          9.299720250253264
   6 C     6.0000    0    12.011         12.865718502638693         -4.960325121394688          9.913730065686957
   7 C     6.0000    0    12.011         15.493154034993989         -5.375947707837060          9.727822588084052
   8 C     6.0000    0    12.011         16.241260706616867         -7.452254061864894          8.195906648990121
   9 C     6.0000    0    12.011         14.572269702946688         -9.322415861121657          7.557436218478951
  10 N     7.0000    0    14.007         12.206277781219399         -9.367958260949159          8.954214062283906
  11 C     6.0000    0    12.011          1.893414879334666         -6.709776884394965          7.750668274576934
  12 H     1.0000    0     1.008         18.088844058025540         -7.445394355998759          7.291927806936880
  13 H     1.0000    0     1.008         14.789412463817179        -10.602998224404065          5.979749222695310
  14 H     1.0000    0     1.008         16.827980986950603         -3.918216747582474         10.259300504344870
  15 H     1.0000    0     1.008         12.127776667890174         -3.090548826269243         10.344419438595084
  16 H     1.0000    0     1.008          1.509354498781046         -8.731371887393509          7.810687866316407
  17 H     1.0000    0     1.008          1.096373749473896         -5.933505734472124          6.019338985200961
  18 H     1.0000    0     1.008          1.034814030935277         -5.787537618709645          9.374039399648119
  19 H     1.0000    0     1.008          9.831317219260518         -4.302706095968494          4.911749711122242
  20 H     1.0000    0     1.008          4.654654360328390         -4.177228280676124          4.142068036228385
  21 C     6.0000    0    12.011          9.901581016371976        -13.157938193083739         13.991640009942580
  22 C     6.0000    0    12.011         11.636818259392898        -14.722506710045696         12.989204546585910
  23 N     7.0000    0    14.007          9.950717675306198        -10.905390310628007         12.599803799977829
  24 C     6.0000    0    12.011         11.739961401508454        -11.130753380181055         10.750863625205000
  25 N     7.0000    0    14.007         12.776137924986289        -13.470523462074055         10.956342996376927
  26 C     6.0000    0    12.011          8.335774728792300         -8.783845802680235         13.042131996144777
  27 C     6.0000    0    12.011          8.293134948306502         -7.507970747197428         15.308132838947891
  28 C     6.0000    0    12.011          6.049294923875881         -6.351297726516237         16.167251472307974
  29 C     6.0000    0    12.011          3.778031193789794         -7.214441476541573         15.021115564549531
  30 C     6.0000    0    12.011          3.809119078418933         -8.506348968544568         12.780359573169468
  31 N     7.0000    0    14.007          6.175927361836078         -8.461059792019013         11.384702336961928
  32 C     6.0000    0    12.011         14.624106780526281        -14.720027389357991          9.305750366346606
  33 H     1.0000    0     1.008          1.999721422998406         -7.086127182322186         16.046768203187558
  34 H     1.0000    0     1.008          2.305046364182197         -9.708537932887385         12.095785494169021
  35 H     1.0000    0     1.008          6.014924584952121         -5.298731608278904         17.922285486307853
  36 H     1.0000    0     1.008          9.959270575788326         -7.585903052960340         16.509751105998266
  37 H     1.0000    0     1.008         13.940160090602298        -14.761573018412250          7.364515967193063
  38 H     1.0000    0     1.008         16.448601458030705        -13.777496244446624          9.383198902219235
  39 H     1.0000    0     1.008         14.821441432061009        -16.653795480556411          9.981722411985443
  40 H     1.0000    0     1.008          8.624929283448129        -13.382696550273931         15.557693851645801
  41 H     1.0000    0     1.008         12.194308255887142        -16.611590337081417         13.498436606798206

--------------------------------
INTERNAL COORDINATES (ANGSTROEM)
--------------------------------
 C      0   0   0   0.000000     0.000     0.000
 C      1   0   0   1.345381     0.000     0.000
 N      1   2   0   1.401422   107.670     0.000
 C      3   1   2   1.366728   108.352   359.879
 N      4   3   1   1.358485   107.570     0.513
 C      3   1   2   1.430236   124.787   178.474
 C      6   3   1   1.376365   122.499    59.793
 C      7   6   3   1.411101   120.488   210.989
 C      8   7   6   1.421654   115.759    18.531
 C      9   8   7   1.368788   121.323   342.019
 N      6   3   1   1.450785   117.663   259.020
 C      5   4   3   1.468463   129.166   174.506
 H      9   8   7   1.088458   119.878   153.468
 H     10   9   8   1.081405   125.105   159.630
 H      8   7   6   1.083097   120.896   181.785
 H      7   6   3   1.087857   118.512    24.421
 H     12   5   4   1.089379   110.408   304.487
 H     12   5   4   1.089048   106.951   186.236
 H     12   5   4   1.087463   111.241    66.730
 H      1   2   3   1.075788   131.627   180.282
 H      2   1   3   1.076559   131.282   179.804
 C     11   6   3   3.551849   107.251   273.879
 C     22  11   6   1.345380    79.468   190.217
 N     22  11   6   1.401430    28.228     7.796
 C     11   6   3   1.354616   118.473   269.247
 N     25  11   6   1.358493   127.610   189.249
 C     24  22  11   1.430213   124.789   175.969
 C     27  24  22   1.376312   122.511    59.874
 C     28  27  24   1.411108   120.483   210.933
 C     29  28  27   1.421635   115.759    18.530
 C     30  29  28   1.368819   121.324   342.018
 N      4   3   1   1.354698   124.652   176.036
 C     26  25  11   1.468474   129.165   359.168
 H     30  29  28   1.088462   119.878   153.473
 H     31  30  29   1.081405   125.111   159.643
 H     29  28  27   1.083098   120.894   181.763
 H     28  27  24   1.087838   118.515    24.372
 H     33  26  25   1.089373   110.410   304.485
 H     33  26  25   1.087474   111.241    66.732
 H     33  26  25   1.089043   106.952   186.237
 H     22  11   6   1.075790   148.892    11.554
 H     23  22  11   1.076554   131.283   181.008

---------------------------
INTERNAL COORDINATES (A.U.)
---------------------------
 C      0   0   0   0.000000     0.000     0.000
 C      1   0   0   2.542402     0.000     0.000
 N      1   2   0   2.648304   107.670     0.000
 C      3   1   2   2.582741   108.352   359.879
 N      4   3   1   2.567164   107.570     0.513
 C      3   1   2   2.702754   124.787   178.474
 C      6   3   1   2.600953   122.499    59.793
 C      7   6   3   2.666594   120.488   210.989
 C      8   7   6   2.686536   115.759    18.531
 C      9   8   7   2.586635   121.323   342.019
 N      6   3   1   2.741586   117.663   259.020
 C      5   4   3   2.774993   129.166   174.506
 H      9   8   7   2.056888   119.878   153.468
 H     10   9   8   2.043560   125.105   159.630
 H      8   7   6   2.046756   120.896   181.785
 H      7   6   3   2.055752   118.512    24.421
 H     12   5   4   2.058628   110.408   304.487
 H     12   5   4   2.058002   106.951   186.236
 H     12   5   4   2.055007   111.241    66.730
 H      1   2   3   2.032944   131.627   180.282
 H      2   1   3   2.034401   131.282   179.804
 C     11   6   3   6.712022   107.251   273.879
 C     22  11   6   2.542400    79.468   190.217
 N     22  11   6   2.648319    28.228     7.796
 C     11   6   3   2.559853   118.473   269.247
 N     25  11   6   2.567179   127.610   189.249
 C     24  22  11   2.702711   124.789   175.969
 C     27  24  22   2.600853   122.511    59.874
 C     28  27  24   2.666607   120.483   210.933
 C     29  28  27   2.686500   115.759    18.530
 C     30  29  28   2.586693   121.324   342.018
 N      4   3   1   2.560008   124.652   176.036
 C     26  25  11   2.775014   129.165   359.168
 H     30  29  28   2.056894   119.878   153.473
 H     31  30  29   2.043559   125.111   159.643
 H     29  28  27   2.046759   120.894   181.763
 H     28  27  24   2.055716   118.515    24.372
 H     33  26  25   2.058616   110.410   304.485
 H     33  26  25   2.055029   111.241    66.732
 H     33  26  25   2.057994   106.952   186.237
 H     22  11   6   2.032949   148.892    11.554
 H     23  22  11   2.034392   131.283   181.008

---------------------
BASIS SET INFORMATION
---------------------
There are 3 groups of distinct atoms

 Group   1 Type C   : 12s6p1d contracted to 5s4p1d pattern {63111/3111/1}
 Group   2 Type N   : 12s6p1d contracted to 5s4p1d pattern {63111/3111/1}
 Group   3 Type H   : 6s1p contracted to 4s1p pattern {3111/1}

Atom   0C    basis set group =>   1
Atom   1C    basis set group =>   1
Atom   2N    basis set group =>   2
Atom   3C    basis set group =>   1
Atom   4N    basis set group =>   2
Atom   5C    basis set group =>   1
Atom   6C    basis set group =>   1
Atom   7C    basis set group =>   1
Atom   8C    basis set group =>   1
Atom   9C    basis set group =>   1
Atom  10N    basis set group =>   2
Atom  11C    basis set group =>   1
Atom  12H    basis set group =>   3
Atom  13H    basis set group =>   3
Atom  14H    basis set group =>   3
Atom  15H    basis set group =>   3
Atom  16H    basis set group =>   3
Atom  17H    basis set group =>   3
Atom  18H    basis set group =>   3
Atom  19H    basis set group =>   3
Atom  20H    basis set group =>   3
Atom  21C    basis set group =>   1
Atom  22C    basis set group =>   1
Atom  23N    basis set group =>   2
Atom  24C    basis set group =>   1
Atom  25N    basis set group =>   2
Atom  26C    basis set group =>   1
Atom  27C    basis set group =>   1
Atom  28C    basis set group =>   1
Atom  29C    basis set group =>   1
Atom  30C    basis set group =>   1
Atom  31N    basis set group =>   2
Atom  32C    basis set group =>   1
Atom  33H    basis set group =>   3
Atom  34H    basis set group =>   3
Atom  35H    basis set group =>   3
Atom  36H    basis set group =>   3
Atom  37H    basis set group =>   3
Atom  38H    basis set group =>   3
Atom  39H    basis set group =>   3
Atom  40H    basis set group =>   3
Atom  41H    basis set group =>   3


           ************************************************************
           *        Program running with 24 parallel MPI-processes    *
           *              working on a common directory               *
           ************************************************************
------------------------------------------------------------------------------
                           ORCA GTO INTEGRAL CALCULATION
------------------------------------------------------------------------------

                         BASIS SET STATISTICS AND STARTUP INFO

 # of primitive gaussian shells          ...  582
 # of primitive gaussian functions       ... 1002
 # of contracted shell                   ...  330
 # of contracted basis functions         ...  654
 Highest angular momentum                ...    2
 Maximum contraction depth               ...    6
 Integral package used                   ... LIBINT
 Integral threshhold            Thresh   ...  2.500e-11
 Primitive cut-off              TCut     ...  2.500e-12


                              INTEGRAL EVALUATION

 One electron integrals                  ... done
 Pre-screening matrix                    ... done
 Shell pair data                         ... done (   0.048 sec)

           ************************************************************
           *              Shut down parallel processing               *
           ************************************************************


           ************************************************************
           *        Program running with 24 parallel MPI-processes    *
           *              working on a common directory               *
           ************************************************************
-------------------------------------------------------------------------------
                                 ORCA SCF
-------------------------------------------------------------------------------

------------
SCF SETTINGS
------------
Hamiltonian:
 Density Functional     Method          .... DFT(GTOs)
 Exchange Functional    Exchange        .... B88
   X-Alpha parameter    XAlpha          ....  0.666667
   Becke's b parameter  XBeta           ....  0.004200
 Correlation Functional Correlation     .... LYP
 LDA part of GGA corr.  LDAOpt          .... VWN-5
 Gradients option       PostSCFGGA      .... off
 Hybrid DFT is turned on
   Fraction HF Exchange ScalHFX         ....  0.200000
   Scaling of DF-GGA-X  ScalDFX         ....  0.720000
   Scaling of DF-GGA-C  ScalDFC         ....  0.810000
   Scaling of DF-LDA-C  ScalLDAC        ....  1.000000
   Perturbative correction              ....  0.000000
   NL short-range parameter             ....  4.800000


General Settings:
 Integral files         IntName         .... input
 Hartree-Fock type      HFTyp           .... RHF
 Total Charge           Charge          ....    0
 Multiplicity           Mult            ....    1
 Number of Electrons    NEL             ....  168
 Basis Dimension        Dim             ....  654
 Nuclear Repulsion      ENuc            ....   2121.8130734308 Eh

Convergence Acceleration:
 DIIS                   CNVDIIS         .... on
   Start iteration      DIISMaxIt       ....    12
   Startup error        DIISStart       ....  0.200000
   # of expansion vecs  DIISMaxEq       ....     5
   Bias factor          DIISBfac        ....   1.050
   Max. coefficient     DIISMaxC        ....  10.000
 Newton-Raphson         CNVNR           .... off
 SOSCF                  CNVSOSCF        .... on
   Start iteration      SOSCFMaxIt      ....   150
   Startup grad/error   SOSCFStart      ....  0.003300
 Level Shifting         CNVShift        .... on
   Level shift para.    LevelShift      ....    0.2500
   Turn off err/grad.   ShiftErr        ....    0.0010
 Zerner damping         CNVZerner       .... off
 Static damping         CNVDamp         .... on
   Fraction old density DampFac         ....    0.7000
   Max. Damping (<1)    DampMax         ....    0.9800
   Min. Damping (>=0)   DampMin         ....    0.0000
   Turn off err/grad.   DampErr         ....    0.1000
 Fernandez-Rico         CNVRico         .... off

SCF Procedure:
 Maximum # iterations   MaxIter         ....   125
 SCF integral mode      SCFMode         .... Direct
   Integral package                     .... LIBINT
 Reset frequeny         DirectResetFreq ....    20
 Integral Threshold     Thresh          ....  2.500e-11 Eh
 Primitive CutOff       TCut            ....  2.500e-12 Eh

Convergence Tolerance:
 Convergence Check Mode ConvCheckMode   .... Total+1el-Energy
 Energy Change          TolE            ....  1.000e-08 Eh
 1-El. energy change                    ....  1.000e-05 Eh
 Orbital Gradient       TolG            ....  1.000e-05
 Orbital Rotation angle TolX            ....  1.000e-05
 DIIS Error             TolErr          ....  5.000e-07


Diagonalization of the overlap matrix:
Smallest eigenvalue                        ... 1.076e-06
Time for diagonalization                   ...    0.492 sec
Threshold for overlap eigenvalues          ... 1.000e-08
Number of eigenvalues below threshold      ... 0
Time for construction of square roots      ...    0.187 sec
Total time needed                          ...    0.686 sec

-------------------
DFT GRID GENERATION
-------------------

General Integration Accuracy     IntAcc      ...  4.670
Radial Grid Type                 RadialGrid  ... Gauss-Chebyshev
Angular Grid (max. acc.)         AngularGrid ... Lebedev-302
Angular grid pruning method      GridPruning ... 3 (G Style)
Weight generation scheme         WeightScheme... Becke
Basis function cutoff            BFCut       ...    1.0000e-11
Integration weight cutoff        WCut        ...    1.0000e-14
Grids for H and He will be reduced by one unit

# of grid points (after initial pruning)     ... 210180 (   0.0 sec)
# of grid points (after weights+screening)   ... 181346 (   0.7 sec)
nearest neighbour list constructed           ...    0.0 sec
Grid point re-assignment to atoms done       ...    0.2 sec
Grid point division into batches done        ...    0.9 sec
Reduced shell lists constructed in    1.5 sec

Total number of grid points                  ...   181346
Total number of batches                      ...     2856
Average number of points per batch           ...       63
Average number of grid points per atom       ...     4318
Average number of shells per batch           ...   182.70 (55.36%)
Average number of basis functions per batch  ...   347.90 (53.20%)
Average number of large shells per batch     ...   137.44 (75.23%)
Average number of large basis fcns per batch ...   263.09 (75.62%)
Maximum spatial batch extension              ...   7.08, 15.63, 13.24 au
Average spatial batch extension              ...   0.06,  0.07,  0.06 au

Time for grid setup =    2.373 sec

------------------------------
INITIAL GUESS: MODEL POTENTIAL
------------------------------
Loading Hartree-Fock densities                     ... done
Calculating cut-offs                               ... done
Setting up the integral package                    ... done
Initializing the effective Hamiltonian             ... done
Starting the Coulomb interaction                   ... done (   0.3 sec)
Reading the grid                                   ... done
Mapping shells                                     ... done
Starting the XC term evaluation                    ... done (   1.5 sec)
  promolecular density results
     # of electrons  =    167.990890098
     EX              =   -137.523037482
     EC              =     -5.744119695
     EX+EC           =   -143.267157177
Transforming the Hamiltonian                       ... done (   0.7 sec)
Diagonalizing the Hamiltonian                      ... done (   0.3 sec)
Back transforming the eigenvectors                 ... done (   0.0 sec)
Now organizing SCF variables                       ... done
                      ------------------
                      INITIAL GUESS DONE (   5.7 sec)
                      ------------------

--------------------
COSMO INITIALIZATION
--------------------

Epsilon                                      ...   36.6000
Refractive Index                             ...    1.3440
Potential Evaluation                         ...  ANALYTIC
Technical COSMO parameters:
  rsolv                                      ...    1.3000
  routf                                      ...    0.8500
  disex                                      ...   10.0000
  nppa                                       ... 1082   
  nspa                                       ...   92   
Radii:
 Radius for C  used is    3.7795 Bohr (=   2.0000 Ang.)
 Radius for N  used is    3.4582 Bohr (=   1.8300 Ang.)
 Radius for H  used is    2.4566 Bohr (=   1.3000 Ang.)
Initializing COSMO package            ... done
Setting COSMO radii                   ... done
Setting atoms and making cavity       ...  USING 1082 GRID
done
Cholesky decomposition of A           ... done
--------------
SCF ITERATIONS
--------------
ITER       Energy         Delta-E        Max-DP      RMS-DP      [F,P]     Damp
               ***  Starting incremental Fock matrix formation  ***
  0  -1024.1282027342   0.000000000000 3.84775312  0.01368841  0.1969726 0.7000
  1  -1024.3969333219  -0.268730587668 2.69945596  0.01043131  0.0975699 0.7000
                               ***Turning on DIIS***
  2  -1024.5074710293  -0.110537707429 3.08453083  0.01602030  0.0377712 0.0000
  3  -1024.6679387517  -0.160467722451 2.95765507  0.01108593  0.0557168 0.0000
  4  -1024.7115815399  -0.043642788149 0.25960443  0.00225403  0.0091689 0.0000
                      *** Initiating the SOSCF procedure ***
                           *** Shutting down DIIS ***
                      *** Re-Reading the Fockian *** 
                      *** Removing any level shift *** 
ITER      Energy       Delta-E        Grad      Rot      Max-DP    RMS-DP
  5  -1024.71372750  -0.0021459624  0.000769  0.000769  0.204532  0.000905
               *** Restarting incremental Fock matrix formation ***
  6  -1024.71393471  -0.0002072076  0.000378  0.002857  0.092946  0.000628
  7  -1024.71390385   0.0000308628  0.000781  0.001342  0.071485  0.000299
  8  -1024.71396869  -0.0000648434  0.000156  0.000804  0.113664  0.000372
  9  -1024.71396344   0.0000052547  0.000225  0.000459  0.112651  0.000374
 10  -1024.71397163  -0.0000081968  0.000031  0.000107  0.228284  0.000674
 11  -1024.71397146   0.0000001770  0.000048  0.000070  0.042090  0.000188
 12  -1024.71397174  -0.0000002876  0.000004  0.000019  0.173734  0.000523
 13  -1024.71397173   0.0000000103  0.000006  0.000011  0.118489  0.000387
 14  -1024.71397173   0.0000000077  0.000003  0.000005  0.126818  0.000470
 15  -1024.71397173  -0.0000000011  0.000003  0.000003  0.116730  0.000383
 16  -1024.71397173  -0.0000000079  0.000003  0.000006  0.295186  0.000776
 17  -1024.71397173   0.0000000037  0.000003  0.000003  0.056660  0.000219
                  ***Gradient check signals convergence***
              ***Rediagonalizing the Fockian in SOSCF/NRSCF***

               *****************************************************
               *                     SUCCESS                       *
               *           SCF CONVERGED AFTER  18 CYCLES          *
               *****************************************************

Setting up the final grid:

General Integration Accuracy     IntAcc      ...  5.010
Radial Grid Type                 RadialGrid  ... Gauss-Chebyshev
Angular Grid (max. acc.)         AngularGrid ... Lebedev-434
Angular grid pruning method      GridPruning ... 3 (G Style)
Weight generation scheme         WeightScheme... Becke
Basis function cutoff            BFCut       ...    1.0000e-11
Integration weight cutoff        WCut        ...    1.0000e-14
Grids for H and He will be reduced by one unit

# of grid points (after initial pruning)     ... 376560 (   0.0 sec)
# of grid points (after weights+screening)   ... 324110 (   1.0 sec)
nearest neighbour list constructed           ...    0.0 sec
Grid point re-assignment to atoms done       ...    0.4 sec
Grid point division into batches done        ...    3.1 sec
Reduced shell lists constructed in    4.2 sec

Total number of grid points                  ...   324110
Total number of batches                      ...     5086
Average number of points per batch           ...       63
Average number of grid points per atom       ...     7717
Average number of shells per batch           ...   180.17 (54.60%)
Average number of basis functions per batch  ...   342.01 (52.30%)
Average number of large shells per batch     ...   135.54 (75.23%)
Average number of large basis fcns per batch ...   259.23 (75.79%)
Maximum spatial batch extension              ...  10.23, 16.29, 15.30 au
Average spatial batch extension              ...   0.04,  0.05,  0.05 au

Final grid set up in    5.5 sec
Final integration                            ... done (   4.7 sec)
Change in XC energy                          ...    -0.000101330
Integrated number of electrons               ...   168.000016595
Previous integrated no of electrons          ...   167.999927635
   4.48457431765582       -3.05524535410616        1.21913526852071     
  1.156430470255361E-003  0.325192585214471       3.556140339093749E-003
Total Energy after outlying charge correction =  -1024.715706553 Eh

----------------
TOTAL SCF ENERGY
----------------

Total Energy       :        -1024.71407305 Eh          -27883.88752 eV

Components:
Nuclear Repulsion  :         2121.81307343 Eh           57737.46904 eV
Electronic Energy  :        -3146.52714648 Eh          -85621.35656 eV
COSMO(ediel)       :           -0.03152398 Eh              -0.85781 eV

One Electron Energy:        -5606.66284462 Eh         -152565.05226 eV
Two Electron Energy:         2460.13569814 Eh           66943.69570 eV

Virial components:
Potential Energy   :        -2045.52310197 Eh          -55661.51338 eV
Kinetic Energy     :         1020.80902891 Eh           27777.62586 eV
Virial Ratio       :            2.00382544


DFT components:
N(Alpha)           :       84.000008297404 electrons
N(Beta)            :       84.000008297404 electrons
N(Total)           :      168.000016594807 electrons
E(X)               :     -110.905905649612 Eh       
E(C)               :       -6.754173565243 Eh       
E(XC)              :     -117.660079214856 Eh       

---------------
SCF CONVERGENCE
---------------

  Last Energy change         ...    8.6600e-09  Tolerance :   1.0000e-08
  Last MAX-Density change    ...    8.0408e-02  Tolerance :   1.0000e-07
  Last RMS-Density change    ...    2.1619e-04  Tolerance :   5.0000e-09
  Last Orbital Gradient      ...    1.1307e-06  Tolerance :   1.0000e-05
  Last Orbital Rotation      ...    2.7335e-06  Tolerance :   1.0000e-05

             **** THE GBW FILE WAS UPDATED (input.gbw) ****
             **** DENSITY FILE WAS UPDATED (input.scfp.tmp) ****
             **** ENERGY FILE WAS UPDATED (input.en.tmp) ****
----------------
ORBITAL ENERGIES
----------------

  NO   OCC          E(Eh)            E(eV) 
   0   2.0000     -14.386809      -391.4850 
   1   2.0000     -14.386801      -391.4848 
   2   2.0000     -14.382402      -391.3651 
   3   2.0000     -14.382387      -391.3647 
   4   2.0000     -14.355181      -390.6243 
   5   2.0000     -14.355161      -390.6238 
   6   2.0000     -10.297160      -280.2000 
   7   2.0000     -10.297152      -280.1997 
   8   2.0000     -10.211429      -277.8671 
   9   2.0000     -10.211421      -277.8669 
  10   2.0000     -10.210092      -277.8307 
  11   2.0000     -10.210092      -277.8307 
  12   2.0000     -10.208975      -277.8003 
  13   2.0000     -10.208964      -277.8000 
  14   2.0000     -10.205046      -277.6934 
  15   2.0000     -10.205015      -277.6926 
  16   2.0000     -10.167263      -276.6653 
  17   2.0000     -10.167245      -276.6648 
  18   2.0000     -10.155476      -276.3446 
  19   2.0000     -10.155449      -276.3438 
  20   2.0000     -10.153607      -276.2937 
  21   2.0000     -10.153594      -276.2934 
  22   2.0000     -10.130040      -275.6524 
  23   2.0000     -10.129998      -275.6512 
  24   2.0000      -1.067150       -29.0386 
  25   2.0000      -1.058047       -28.7909 
  26   2.0000      -0.967376       -26.3236 
  27   2.0000      -0.965698       -26.2780 
  28   2.0000      -0.931050       -25.3351 
  29   2.0000      -0.929604       -25.2958 
  30   2.0000      -0.804561       -21.8932 
  31   2.0000      -0.804064       -21.8797 
  32   2.0000      -0.777407       -21.1543 
  33   2.0000      -0.772137       -21.0109 
  34   2.0000      -0.746964       -20.3259 
  35   2.0000      -0.744707       -20.2645 
  36   2.0000      -0.722510       -19.6605 
  37   2.0000      -0.718621       -19.5547 
  38   2.0000      -0.664203       -18.0739 
  39   2.0000      -0.651613       -17.7313 
  40   2.0000      -0.650702       -17.7065 
  41   2.0000      -0.637631       -17.3508 
  42   2.0000      -0.618690       -16.8354 
  43   2.0000      -0.595131       -16.1943 
  44   2.0000      -0.590288       -16.0625 
  45   2.0000      -0.577347       -15.7104 
  46   2.0000      -0.559073       -15.2131 
  47   2.0000      -0.547685       -14.9033 
  48   2.0000      -0.518173       -14.1002 
  49   2.0000      -0.514948       -14.0124 
  50   2.0000      -0.499850       -13.6016 
  51   2.0000      -0.493112       -13.4182 
  52   2.0000      -0.489343       -13.3157 
  53   2.0000      -0.486745       -13.2450 
  54   2.0000      -0.475423       -12.9369 
  55   2.0000      -0.462750       -12.5921 
  56   2.0000      -0.455858       -12.4045 
  57   2.0000      -0.452056       -12.3011 
  58   2.0000      -0.450619       -12.2620 
  59   2.0000      -0.445184       -12.1141 
  60   2.0000      -0.439332       -11.9548 
  61   2.0000      -0.439251       -11.9526 
  62   2.0000      -0.429232       -11.6800 
  63   2.0000      -0.428061       -11.6481 
  64   2.0000      -0.416383       -11.3304 
  65   2.0000      -0.415754       -11.3132 
  66   2.0000      -0.402618       -10.9558 
  67   2.0000      -0.400831       -10.9072 
  68   2.0000      -0.390105       -10.6153 
  69   2.0000      -0.380861       -10.3637 
  70   2.0000      -0.351879        -9.5751 
  71   2.0000      -0.349554        -9.5118 
  72   2.0000      -0.329227        -8.9587 
  73   2.0000      -0.324311        -8.8249 
  74   2.0000      -0.309047        -8.4096 
  75   2.0000      -0.309017        -8.4088 
  76   2.0000      -0.304260        -8.2793 
  77   2.0000      -0.298570        -8.1245 
  78   2.0000      -0.243154        -6.6166 
  79   2.0000      -0.229297        -6.2395 
  80   2.0000      -0.220969        -6.0129 
  81   2.0000      -0.220410        -5.9977 
  82   2.0000      -0.166076        -4.5192 
  83   2.0000      -0.132127        -3.5954 
  84   0.0000      -0.011450        -0.3116 
  85   0.0000      -0.004411        -0.1200 
  86   0.0000       0.000309         0.0084 
  87   0.0000       0.003484         0.0948 
  88   0.0000       0.005765         0.1569 
  89   0.0000       0.007238         0.1970 
  90   0.0000       0.010357         0.2818 
  91   0.0000       0.013153         0.3579 
  92   0.0000       0.014890         0.4052 
  93   0.0000       0.020363         0.5541 
  94   0.0000       0.024101         0.6558 
  95   0.0000       0.024403         0.6640 
  96   0.0000       0.027516         0.7487 
  97   0.0000       0.029506         0.8029 
  98   0.0000       0.032676         0.8892 
  99   0.0000       0.038649         1.0517 
 100   0.0000       0.043269         1.1774 
 101   0.0000       0.044460         1.2098 
 102   0.0000       0.046030         1.2525 
 103   0.0000       0.047007         1.2791 
 104   0.0000       0.056421         1.5353 
 105   0.0000       0.059599         1.6218 
 106   0.0000       0.060993         1.6597 
 107   0.0000       0.061680         1.6784 
 108   0.0000       0.068632         1.8676 
 109   0.0000       0.069731         1.8975 
 110   0.0000       0.073080         1.9886 
 111   0.0000       0.078082         2.1247 
 112   0.0000       0.078627         2.1395 
 113   0.0000       0.088511         2.4085 
 114   0.0000       0.089820         2.4441 
 115   0.0000       0.091895         2.5006 
 116   0.0000       0.092007         2.5036 
 117   0.0000       0.101129         2.7518 
 118   0.0000       0.104060         2.8316 
 119   0.0000       0.105437         2.8691 
 120   0.0000       0.107128         2.9151 
 121   0.0000       0.110525         3.0075 
 122   0.0000       0.111287         3.0283 
 123   0.0000       0.115530         3.1437 
 124   0.0000       0.116811         3.1786 
 125   0.0000       0.120057         3.2669 
 126   0.0000       0.120902         3.2899 
 127   0.0000       0.122828         3.3423 
 128   0.0000       0.124046         3.3755 
 129   0.0000       0.124841         3.3971 
 130   0.0000       0.126729         3.4485 
 131   0.0000       0.128788         3.5045 
 132   0.0000       0.129480         3.5233 
 133   0.0000       0.132386         3.6024 
 134   0.0000       0.134674         3.6647 
 135   0.0000       0.137401         3.7389 
 136   0.0000       0.140051         3.8110 
 137   0.0000       0.144405         3.9295 
 138   0.0000       0.146011         3.9732 
 139   0.0000       0.146258         3.9799 
 140   0.0000       0.151251         4.1157 
 141   0.0000       0.154900         4.2150 
 142   0.0000       0.154918         4.2155 
 143   0.0000       0.158381         4.3098 
 144   0.0000       0.159226         4.3328 
 145   0.0000       0.160556         4.3690 
 146   0.0000       0.163005         4.4356 
 147   0.0000       0.165655         4.5077 
 148   0.0000       0.168243         4.5781 
 149   0.0000       0.170919         4.6509 
 150   0.0000       0.174320         4.7435 
 151   0.0000       0.178926         4.8688 
 152   0.0000       0.180846         4.9211 
 153   0.0000       0.183873         5.0035 
 154   0.0000       0.184794         5.0285 
 155   0.0000       0.186300         5.0695 
 156   0.0000       0.188184         5.1208 
 157   0.0000       0.191417         5.2087 
 158   0.0000       0.196513         5.3474 
 159   0.0000       0.196657         5.3513 
 160   0.0000       0.202645         5.5143 
 161   0.0000       0.203767         5.5448 
 162   0.0000       0.204301         5.5593 
 163   0.0000       0.207417         5.6441 
 164   0.0000       0.209301         5.6954 
 165   0.0000       0.215315         5.8590 
 166   0.0000       0.216468         5.8904 
 167   0.0000       0.216976         5.9042 
 168   0.0000       0.221005         6.0138 
 169   0.0000       0.223000         6.0681 
 170   0.0000       0.226539         6.1644 
 171   0.0000       0.228714         6.2236 
 172   0.0000       0.233737         6.3603 
 173   0.0000       0.237012         6.4494 
 174   0.0000       0.241263         6.5651 
 175   0.0000       0.242810         6.6072 
 176   0.0000       0.246078         6.6961 
 177   0.0000       0.250363         6.8127 
 178   0.0000       0.252818         6.8795 
 179   0.0000       0.253118         6.8877 
 180   0.0000       0.257148         6.9973 
 181   0.0000       0.257819         7.0156 
 182   0.0000       0.265067         7.2128 
 183   0.0000       0.265520         7.2252 
 184   0.0000       0.265823         7.2334 
 185   0.0000       0.268588         7.3087 
 186   0.0000       0.273291         7.4366 
 187   0.0000       0.277003         7.5376 
 188   0.0000       0.277953         7.5635 
 189   0.0000       0.282869         7.6973 
 190   0.0000       0.286849         7.8056 
 191   0.0000       0.287230         7.8159 
 192   0.0000       0.293382         7.9833 
 193   0.0000       0.293724         7.9926 
 194   0.0000       0.296704         8.0737 
 195   0.0000       0.296926         8.0798 
 196   0.0000       0.300982         8.1901 
 197   0.0000       0.302892         8.2421 
 198   0.0000       0.303901         8.2696 
 199   0.0000       0.305613         8.3162 
 200   0.0000       0.310134         8.4392 
 201   0.0000       0.310303         8.4438 
 202   0.0000       0.314819         8.5667 
 203   0.0000       0.319605         8.6969 
 204   0.0000       0.320354         8.7173 
 205   0.0000       0.323034         8.7902 
 206   0.0000       0.327025         8.8988 
 207   0.0000       0.328363         8.9352 
 208   0.0000       0.332482         9.0473 
 209   0.0000       0.337264         9.1774 
 210   0.0000       0.343203         9.3390 
 211   0.0000       0.344562         9.3760 
 212   0.0000       0.348435         9.4814 
 213   0.0000       0.350913         9.5488 
 214   0.0000       0.352345         9.5878 
 215   0.0000       0.355970         9.6864 
 216   0.0000       0.356712         9.7066 
 217   0.0000       0.365302         9.9404 
 218   0.0000       0.368781        10.0350 
 219   0.0000       0.373296        10.1579 
 220   0.0000       0.373853        10.1731 
 221   0.0000       0.375045        10.2055 
 222   0.0000       0.385385        10.4869 
 223   0.0000       0.388690        10.5768 
 224   0.0000       0.392400        10.6777 
 225   0.0000       0.393595        10.7103 
 226   0.0000       0.398358        10.8399 
 227   0.0000       0.402821        10.9613 
 228   0.0000       0.405462        11.0332 
 229   0.0000       0.405822        11.0430 
 230   0.0000       0.415882        11.3167 
 231   0.0000       0.417544        11.3620 
 232   0.0000       0.419489        11.4149 
 233   0.0000       0.428409        11.6576 
 234   0.0000       0.428609        11.6630 
 235   0.0000       0.434877        11.8336 
 236   0.0000       0.439441        11.9578 
 237   0.0000       0.453399        12.3376 
 238   0.0000       0.454387        12.3645 
 239   0.0000       0.458235        12.4692 
 240   0.0000       0.462393        12.5824 
 241   0.0000       0.466518        12.6946 
 242   0.0000       0.476702        12.9717 
 243   0.0000       0.477186        12.9849 
 244   0.0000       0.486905        13.2494 
 245   0.0000       0.500283        13.6134 
 246   0.0000       0.501125        13.6363 
 247   0.0000       0.508510        13.8373 
 248   0.0000       0.509848        13.8737 
 249   0.0000       0.520526        14.1642 
 250   0.0000       0.523751        14.2520 
 251   0.0000       0.529738        14.4149 
 252   0.0000       0.539268        14.6742 
 253   0.0000       0.540692        14.7130 
 254   0.0000       0.550200        14.9717 
 255   0.0000       0.550593        14.9824 
 256   0.0000       0.568294        15.4641 
 257   0.0000       0.579385        15.7659 
 258   0.0000       0.581122        15.8131 
 259   0.0000       0.586995        15.9729 
 260   0.0000       0.599230        16.3059 
 261   0.0000       0.602310        16.3897 
 262   0.0000       0.607340        16.5266 
 263   0.0000       0.612506        16.6671 
 264   0.0000       0.618259        16.8237 
 265   0.0000       0.620963        16.8973 
 266   0.0000       0.627446        17.0737 
 267   0.0000       0.632835        17.2203 
 268   0.0000       0.639259        17.3951 
 269   0.0000       0.649270        17.6675 
 270   0.0000       0.654478        17.8093 
 271   0.0000       0.659121        17.9356 
 272   0.0000       0.666929        18.1481 
 273   0.0000       0.672949        18.3119 
 274   0.0000       0.674480        18.3535 
 275   0.0000       0.675015        18.3681 
 276   0.0000       0.679462        18.4891 
 277   0.0000       0.680630        18.5209 
 278   0.0000       0.684062        18.6143 
 279   0.0000       0.687079        18.6964 
 280   0.0000       0.699670        19.0390 
 281   0.0000       0.704067        19.1586 
 282   0.0000       0.707451        19.2507 
 283   0.0000       0.710696        19.3390 
 284   0.0000       0.713350        19.4112 
 285   0.0000       0.720198        19.5976 
 286   0.0000       0.722135        19.6503 
 287   0.0000       0.731211        19.8973 
 288   0.0000       0.732462        19.9313 
 289   0.0000       0.739795        20.1309 
 290   0.0000       0.743413        20.2293 
 291   0.0000       0.748003        20.3542 
 292   0.0000       0.752672        20.4812 
 293   0.0000       0.765646        20.8343 
 294   0.0000       0.768196        20.9037 
 295   0.0000       0.772969        21.0336 
 296   0.0000       0.775004        21.0889 
 297   0.0000       0.783318        21.3152 
 298   0.0000       0.783392        21.3172 
 299   0.0000       0.790921        21.5221 
 300   0.0000       0.795926        21.6582 
 301   0.0000       0.797445        21.6996 
 302   0.0000       0.801598        21.8126 
 303   0.0000       0.811875        22.0922 
 304   0.0000       0.812669        22.1138 
 305   0.0000       0.816448        22.2167 
 306   0.0000       0.818362        22.2688 
 307   0.0000       0.829687        22.5769 
 308   0.0000       0.832247        22.6466 
 309   0.0000       0.834503        22.7080 
 310   0.0000       0.836011        22.7490 
 311   0.0000       0.847426        23.0596 
 312   0.0000       0.849620        23.1193 
 313   0.0000       0.852664        23.2022 
 314   0.0000       0.855530        23.2802 
 315   0.0000       0.872946        23.7541 
 316   0.0000       0.875440        23.8219 
 317   0.0000       0.897242        24.4152 
 318   0.0000       0.900949        24.5161 
 319   0.0000       0.905678        24.6447 
 320   0.0000       0.914036        24.8722 
 321   0.0000       0.916343        24.9350 
 322   0.0000       0.923027        25.1169 
 323   0.0000       0.923857        25.1394 
 324   0.0000       0.934010        25.4157 
 325   0.0000       0.934810        25.4375 
 326   0.0000       0.953055        25.9339 
 327   0.0000       0.959564        26.1111 
 328   0.0000       0.968647        26.3582 
 329   0.0000       0.970935        26.4205 
 330   0.0000       0.975973        26.5576 
 331   0.0000       0.983102        26.7516 
 332   0.0000       0.991670        26.9847 
 333   0.0000       0.991778        26.9877 
 334   0.0000       1.012880        27.5619 
 335   0.0000       1.015172        27.6242 
 336   0.0000       1.022365        27.8200 
 337   0.0000       1.027819        27.9684 
 338   0.0000       1.034196        28.1419 
 339   0.0000       1.036118        28.1942 
 340   0.0000       1.040755        28.3204 
 341   0.0000       1.050515        28.5860 
 342   0.0000       1.050944        28.5976 
 343   0.0000       1.058809        28.8116 
 344   0.0000       1.074594        29.2412 
 345   0.0000       1.076856        29.3028 
 346   0.0000       1.089507        29.6470 
 347   0.0000       1.105798        30.0903 
 348   0.0000       1.113629        30.3034 
 349   0.0000       1.124807        30.6076 
 350   0.0000       1.125190        30.6180 
 351   0.0000       1.131060        30.7777 
 352   0.0000       1.146578        31.2000 
 353   0.0000       1.151227        31.3265 
 354   0.0000       1.157819        31.5058 
 355   0.0000       1.169542        31.8249 
 356   0.0000       1.178905        32.0796 
 357   0.0000       1.179490        32.0955 
 358   0.0000       1.183522        32.2053 
 359   0.0000       1.197679        32.5905 
 360   0.0000       1.201115        32.6840 
 361   0.0000       1.212508        32.9940 
 362   0.0000       1.243148        33.8278 
 363   0.0000       1.249545        34.0018 
 364   0.0000       1.262514        34.3548 
 365   0.0000       1.264680        34.4137 
 366   0.0000       1.284139        34.9432 
 367   0.0000       1.302005        35.4294 
 368   0.0000       1.322052        35.9749 
 369   0.0000       1.332406        36.2566 
 370   0.0000       1.338225        36.4149 
 371   0.0000       1.345336        36.6085 
 372   0.0000       1.357264        36.9330 
 373   0.0000       1.362614        37.0786 
 374   0.0000       1.392168        37.8828 
 375   0.0000       1.399252        38.0756 
 376   0.0000       1.406991        38.2862 
 377   0.0000       1.431877        38.9634 
 378   0.0000       1.433104        38.9967 
 379   0.0000       1.444667        39.3114 
 380   0.0000       1.453766        39.5590 
 381   0.0000       1.455074        39.5946 
 382   0.0000       1.461704        39.7750 
 383   0.0000       1.463497        39.8238 
 384   0.0000       1.470908        40.0255 
 385   0.0000       1.502418        40.8829 
 386   0.0000       1.504237        40.9324 
 387   0.0000       1.517991        41.3066 
 388   0.0000       1.522892        41.4400 
 389   0.0000       1.532925        41.7130 
 390   0.0000       1.534889        41.7665 
 391   0.0000       1.548102        42.1260 
 392   0.0000       1.559887        42.4467 
 393   0.0000       1.563556        42.5465 
 394   0.0000       1.574403        42.8417 
 395   0.0000       1.575295        42.8660 
 396   0.0000       1.581620        43.0381 
 397   0.0000       1.586022        43.1579 
 398   0.0000       1.588898        43.2361 
 399   0.0000       1.590155        43.2703 
 400   0.0000       1.605994        43.7013 
 401   0.0000       1.611883        43.8616 
 402   0.0000       1.614316        43.9278 
 403   0.0000       1.616297        43.9817 
 404   0.0000       1.633420        44.4476 
 405   0.0000       1.639825        44.6219 
 406   0.0000       1.643613        44.7250 
 407   0.0000       1.652201        44.9587 
 408   0.0000       1.664088        45.2821 
 409   0.0000       1.670565        45.4584 
 410   0.0000       1.671807        45.4922 
 411   0.0000       1.680488        45.7284 
 412   0.0000       1.683753        45.8172 
 413   0.0000       1.691770        46.0354 
 414   0.0000       1.699539        46.2468 
 415   0.0000       1.712546        46.6007 
 416   0.0000       1.716135        46.6984 
 417   0.0000       1.725167        46.9442 
 418   0.0000       1.732608        47.1467 
 419   0.0000       1.735894        47.2361 
 420   0.0000       1.744882        47.4807 
 421   0.0000       1.744975        47.4832 
 422   0.0000       1.756720        47.8028 
 423   0.0000       1.764061        48.0025 
 424   0.0000       1.771722        48.2110 
 425   0.0000       1.779196        48.4144 
 426   0.0000       1.779807        48.4310 
 427   0.0000       1.798427        48.9377 
 428   0.0000       1.802969        49.0613 
 429   0.0000       1.804634        49.1066 
 430   0.0000       1.810206        49.2582 
 431   0.0000       1.827168        49.7198 
 432   0.0000       1.828547        49.7573 
 433   0.0000       1.837282        49.9950 
 434   0.0000       1.841924        50.1213 
 435   0.0000       1.845560        50.2202 
 436   0.0000       1.857053        50.5330 
 437   0.0000       1.874301        51.0023 
 438   0.0000       1.884121        51.2695 
 439   0.0000       1.887285        51.3556 
 440   0.0000       1.897249        51.6268 
 441   0.0000       1.898395        51.6580 
 442   0.0000       1.906640        51.8823 
 443   0.0000       1.906947        51.8907 
 444   0.0000       1.912558        52.0433 
 445   0.0000       1.916352        52.1466 
 446   0.0000       1.929815        52.5129 
 447   0.0000       1.938480        52.7487 
 448   0.0000       1.946755        52.9739 
 449   0.0000       1.947302        52.9888 
 450   0.0000       1.969200        53.5847 
 451   0.0000       1.994044        54.2607 
 452   0.0000       2.003364        54.5143 
 453   0.0000       2.013968        54.8029 
 454   0.0000       2.020207        54.9726 
 455   0.0000       2.021207        54.9999 
 456   0.0000       2.031843        55.2892 
 457   0.0000       2.038900        55.4813 
 458   0.0000       2.053214        55.8708 
 459   0.0000       2.060043        56.0566 
 460   0.0000       2.076525        56.5051 
 461   0.0000       2.093087        56.9558 
 462   0.0000       2.106893        57.3315 
 463   0.0000       2.115549        57.5670 
 464   0.0000       2.125882        57.8482 
 465   0.0000       2.127278        57.8862 
 466   0.0000       2.139228        58.2114 
 467   0.0000       2.140208        58.2380 
 468   0.0000       2.156040        58.6688 
 469   0.0000       2.158944        58.7479 
 470   0.0000       2.172490        59.1164 
 471   0.0000       2.182884        59.3993 
 472   0.0000       2.186139        59.4879 
 473   0.0000       2.198116        59.8138 
 474   0.0000       2.206324        60.0371 
 475   0.0000       2.214843        60.2689 
 476   0.0000       2.220213        60.4151 
 477   0.0000       2.235004        60.8176 
 478   0.0000       2.249753        61.2189 
 479   0.0000       2.250934        61.2510 
 480   0.0000       2.257255        61.4230 
 481   0.0000       2.258544        61.4581 
 482   0.0000       2.284642        62.1683 
 483   0.0000       2.291307        62.3496 
 484   0.0000       2.306484        62.7626 
 485   0.0000       2.327040        63.3220 
 486   0.0000       2.386104        64.9292 
 487   0.0000       2.390977        65.0618 
 488   0.0000       2.413303        65.6693 
 489   0.0000       2.437410        66.3253 
 490   0.0000       2.447752        66.6067 
 491   0.0000       2.450417        66.6792 
 492   0.0000       2.465279        67.0837 
 493   0.0000       2.467735        67.1505 
 494   0.0000       2.476453        67.3877 
 495   0.0000       2.478562        67.4451 
 496   0.0000       2.490965        67.7826 
 497   0.0000       2.495377        67.9027 
 498   0.0000       2.506688        68.2104 
 499   0.0000       2.507113        68.2220 
 500   0.0000       2.521853        68.6231 
 501   0.0000       2.539579        69.1055 
 502   0.0000       2.547672        69.3257 
 503   0.0000       2.556966        69.5786 
 504   0.0000       2.559223        69.6400 
 505   0.0000       2.571784        69.9818 
 506   0.0000       2.577504        70.1374 
 507   0.0000       2.585221        70.3474 
 508   0.0000       2.590943        70.5032 
 509   0.0000       2.598676        70.7136 
 510   0.0000       2.600600        70.7659 
 511   0.0000       2.605891        70.9099 
 512   0.0000       2.626578        71.4728 
 513   0.0000       2.644509        71.9607 
 514   0.0000       2.656560        72.2887 
 515   0.0000       2.675273        72.7979 
 516   0.0000       2.689168        73.1760 
 517   0.0000       2.701346        73.5074 
 518   0.0000       2.704954        73.6055 
 519   0.0000       2.719247        73.9945 
 520   0.0000       2.723649        74.1143 
 521   0.0000       2.730882        74.3111 
 522   0.0000       2.737275        74.4850 
 523   0.0000       2.742140        74.6174 
 524   0.0000       2.748540        74.7916 
 525   0.0000       2.750872        74.8550 
 526   0.0000       2.757728        75.0416 
 527   0.0000       2.767853        75.3171 
 528   0.0000       2.774125        75.4878 
 529   0.0000       2.780873        75.6714 
 530   0.0000       2.784457        75.7689 
 531   0.0000       2.789669        75.9107 
 532   0.0000       2.802575        76.2620 
 533   0.0000       2.806144        76.3591 
 534   0.0000       2.815647        76.6176 
 535   0.0000       2.829973        77.0075 
 536   0.0000       2.831312        77.0439 
 537   0.0000       2.838321        77.2346 
 538   0.0000       2.840709        77.2996 
 539   0.0000       2.855071        77.6904 
 540   0.0000       2.865379        77.9709 
 541   0.0000       2.870455        78.1091 
 542   0.0000       2.871675        78.1422 
 543   0.0000       2.878918        78.3393 
 544   0.0000       2.901286        78.9480 
 545   0.0000       2.913259        79.2738 
 546   0.0000       2.916984        79.3752 
 547   0.0000       2.923477        79.5519 
 548   0.0000       2.937770        79.9408 
 549   0.0000       2.939373        79.9844 
 550   0.0000       2.942093        80.0584 
 551   0.0000       2.957195        80.4694 
 552   0.0000       2.971861        80.8684 
 553   0.0000       2.979994        81.0898 
 554   0.0000       3.000001        81.6342 
 555   0.0000       3.003701        81.7349 
 556   0.0000       3.013945        82.0136 
 557   0.0000       3.035469        82.5993 
 558   0.0000       3.038840        82.6910 
 559   0.0000       3.046722        82.9055 
 560   0.0000       3.047753        82.9336 
 561   0.0000       3.083085        83.8950 
[...]
   195. D(C  32,N  25,C  24,N  23)    174.87  0.000216   -0.30    174.57   
   196. D(C  32,N  25,C  24,N  10)      0.22  0.000613   -0.97     -0.74   
   197. D(C  22,N  25,C  24,N  23)     -0.17  0.000506   -0.46     -0.63   
   198. D(C  22,N  25,C  24,N  10)   -174.81  0.000903   -1.13   -175.94   
   199. D(C  32,N  25,C  22,H  41)      4.90  0.000091   -0.01      4.89   
   200. D(C  32,N  25,C  22,C  21)   -175.69 -0.000333    0.65   -175.04   
   201. D(C  24,N  25,C  22,H  41)   -179.64 -0.000242    0.14   -179.50   
   202. D(C  24,N  25,C  22,C  21)     -0.24 -0.000666    0.80      0.57   
   203. D(N  31,C  26,N  23,C  24)     79.76 -0.000689   -2.07     77.69   
   204. D(N  31,C  26,N  23,C  21)   -101.36 -0.000989    0.41   -100.95   
   205. D(C  27,C  26,N  23,C  24)   -121.95 -0.000609    0.05   -121.89   
   206. D(C  27,C  26,N  23,C  21)     56.93 -0.000909    2.53     59.47   
   207. D(H  36,C  27,C  26,N  31)   -175.93  0.000121    1.00   -174.93   
   208. D(H  36,C  27,C  26,N  23)     25.60 -0.000408   -1.04     24.57   
   209. D(C  28,C  27,C  26,N  31)     11.19  0.000457    0.45     11.65   
   210. D(C  28,C  27,C  26,N  23)   -147.27 -0.000072   -1.58   -148.85   
   211. D(H  35,C  28,C  27,H  36)      9.00  0.000113   -0.47      8.53   
   212. D(H  35,C  28,C  27,C  26)   -178.30 -0.000246    0.10   -178.20   
   213. D(C  29,C  28,C  27,H  36)   -154.44 -0.000102   -0.19   -154.63   
   214. D(C  29,C  28,C  27,C  26)     18.27 -0.000461    0.37     18.64   
   215. D(H  33,C  29,C  28,H  35)     -9.68 -0.000086   -0.01     -9.68   
   216. D(H  33,C  29,C  28,C  27)    153.73  0.000152   -0.30    153.44   
   217. D(C  30,C  29,C  28,H  35)    178.47 -0.000062    0.30    178.77   
   218. D(C  30,C  29,C  28,C  27)    -18.12  0.000176    0.01    -18.11   
   219. D(H  34,C  30,C  29,H  33)    -13.22 -0.000250    1.05    -12.17   
   220. D(H  34,C  30,C  29,C  28)    158.75 -0.000317    0.76    159.50   
   221. D(N  31,C  30,C  29,H  33)    176.46  0.000349   -0.89    175.57   
   222. D(N  31,C  30,C  29,C  28)    -11.57  0.000282   -1.19    -12.75   
   223. D(C  26,N  31,C  30,H  34)   -131.11 -0.000108    0.04   -131.07   
   224. D(C  26,N  31,C  30,C  29)     39.90 -0.000577    1.84     41.74   
   225. D(C   3,N  31,C  30,H  34)     77.85 -0.000358    2.67     80.52   
   226. D(C   3,N  31,C  30,C  29)   -111.14 -0.000828    4.47   -106.67   
   227. D(C  30,N  31,C  26,C  27)    -39.89  0.000275   -1.55    -41.44   
   228. D(C  30,N  31,C  26,N  23)    119.32 -0.000041    0.69    120.00   
   229. D(C   3,N  31,C  26,C  27)    112.03  0.000310   -3.95    108.09   
   230. D(C   3,N  31,C  26,N  23)    -88.76 -0.000006   -1.71    -90.47   
   231. D(C  30,N  31,C   3,N   4)    -24.07 -0.000364   -0.73    -24.79   
   232. D(C  30,N  31,C   3,N   2)    163.11  0.000698   -2.31    160.80   
   233. D(C  26,N  31,C   3,N   4)   -173.21 -0.000434    2.03   -171.18   
   234. D(C  26,N  31,C   3,N   2)     13.97  0.000628    0.45     14.42   
   235. D(H  39,C  32,N  25,C  24)   -174.26  0.000198    0.39   -173.87   
   236. D(H  39,C  32,N  25,C  22)      0.19 -0.000131    0.56      0.76   
   237. D(H  38,C  32,N  25,C  24)     66.28  0.000159    0.35     66.63   
   238. D(H  38,C  32,N  25,C  22)   -119.26 -0.000169    0.52   -118.74   
   239. D(H  37,C  32,N  25,C  24)    -55.98  0.000212    0.36    -55.62   
   240. D(H  37,C  32,N  25,C  22)    118.48 -0.000117    0.54    119.01   
    ----------------------------------------------------------------------------

         *************************************************************
         *                GEOMETRY OPTIMIZATION CYCLE   8            *
         *************************************************************
---------------------------------
CARTESIAN COORDINATES (ANGSTROEM)
---------------------------------
  C      4.383998   -2.674060    3.171400
  C      3.053118   -2.643601    2.977126
  N      4.622764   -3.351655    4.374722
  C      3.419222   -3.724777    4.904856
  N      2.448420   -3.305964    4.051854
  C      5.919006   -3.621754    4.914692
  C      6.807101   -2.623063    5.242699
  C      8.197901   -2.842356    5.149025
  C      8.597458   -3.941683    4.341142
  C      7.715950   -4.932431    4.001293
  N      6.461084   -4.955881    4.736019
  C      1.001437   -3.551161    4.101128
  H      9.577273   -3.938148    3.867135
  H      7.833801   -5.611357    3.167899
  H      8.902999   -2.070881    5.433286
  H      6.415459   -1.633859    5.469714
  H      0.798028   -4.620781    4.138035
  H      0.579222   -3.144922    3.183109
  H      0.547165   -3.058936    4.957801
  H      5.200256   -2.284882    2.588652
  H      2.460599   -2.220517    2.184112
  C      5.233963   -6.961322    7.398780
  C      6.152337   -7.789982    6.869882
  N      5.263320   -5.768738    6.663526
  C      6.211843   -5.888078    5.686929
  N      6.758997   -7.126743    5.796636
  C      4.412909   -4.643558    6.901367
  C      4.391283   -3.977532    8.105109
  C      3.205200   -3.366273    8.564792
  C      2.002206   -3.817985    7.956541
  C      2.015972   -4.492407    6.765529
  N      3.268563   -4.468414    6.026847
  C      7.738864   -7.788317    4.925617
  H      1.061904   -3.752577    8.500861
  H      1.219626   -5.126907    6.401334
  H      3.188355   -2.815758    9.497401
  H      5.272893   -4.025943    8.740463
  H      7.379155   -7.811292    3.897564
  H      8.704134   -7.289289    4.968070
  H      7.842966   -8.811248    5.284457
  H      4.557016   -7.080110    8.226364
  H      6.445537   -8.790248    7.139089

----------------------------
CARTESIAN COORDINATES (A.U.)
----------------------------
  NO LB      ZA    FRAG    MASS        X           Y           Z
   0 C     6.0000    0    12.011          8.284554950124075         -5.053240813029512          5.993078072390087
   1 C     6.0000    0    12.011          5.769556026916048         -4.995681484559223          5.625953481270141
   2 N     7.0000    0    14.007          8.735757010888126         -6.333709611610658          8.267027145401050
   3 C     6.0000    0    12.011          6.461393342686648         -7.038808981894883          9.268834989201434
   4 N     7.0000    0    14.007          4.626842734381190         -6.247367250680274          7.656893831041550
   5 C     6.0000    0    12.011         11.185300233398971         -6.844122755477588          9.287421315476367
   6 C     6.0000    0    12.011         12.863555749812775         -4.956870445295286          9.907264718719293
   7 C     6.0000    0    12.011         15.491788220450422         -5.371273572627564          9.730246270500647
   8 C     6.0000    0    12.011         16.246840445652200         -7.448701954995807          8.203570323071377
   9 C     6.0000    0    12.011         14.581031581065371         -9.320944269321894          7.561347922044077
  10 N     7.0000    0    14.007         12.209679007524352         -9.365257862752420          8.949779190025527
  11 C     6.0000    0    12.011          1.892441311365062         -6.710721269778068          7.750007956775431
  12 H     1.0000    0     1.008         18.098423312602794         -7.442021653617878          7.307825435621996
  13 H     1.0000    0     1.008         14.803739376681287        -10.603928428976809          5.986462380977743
  14 H     1.0000    0     1.008         16.824230669897645         -3.913397591462614         10.267421622186811
  15 H     1.0000    0     1.008         12.123459665294014         -3.087546041335141         10.336262003320433
  16 H     1.0000    0     1.008          1.508054397306286         -8.732011295375390          7.819752398651343
  17 H     1.0000    0     1.008          1.094571894009317         -5.943041794592782          6.015203842804013
  18 H     1.0000    0     1.008          1.033991745219383         -5.780551258317246          9.368885606981149
  19 H     1.0000    0     1.008          9.827059276866196         -4.317801568000099          4.891843910660636
  20 H     1.0000    0     1.008          4.649858964423129         -4.196169691137656          4.127374265416655
  21 C     6.0000    0    12.011          9.890756187614597        -13.154992162334986         13.981667683101728
  22 C     6.0000    0    12.011         11.626232562899071        -14.720933025345214         12.982195350920456
  23 N     7.0000    0    14.007          9.946233014491149        -10.901334062885901         12.592238935080044
  24 C     6.0000    0    12.011         11.738682776748476        -11.126855803454282         10.746738922927880
  25 N     7.0000    0    14.007         12.772652761185173        -13.467591767631054         10.954054685705316
  26 C     6.0000    0    12.011          8.339189177665549         -8.775052813217393         13.041692960517915
  27 C     6.0000    0    12.011          8.298321614864641         -7.516446657545234         15.316437002377164
  28 C     6.0000    0    12.011          6.056950977241011         -6.361334728201038         16.185111259352457
  29 C     6.0000    0    12.011          3.783620740327792         -7.214946084995306         15.035684225684429
  30 C     6.0000    0    12.011          3.809635227985087         -8.489418874820775         12.784996905978664
  31 N     7.0000    0    14.007          6.176688270476656         -8.444079446591266         11.389089869295223
  32 C     6.0000    0    12.011         14.624332696539518        -14.717785482580966          9.308067007620544
  33 H     1.0000    0     1.008          2.006706945788481         -7.091342719210392         16.064299610201740
  34 H     1.0000    0     1.008          2.304758789001164         -9.688450371097957         12.096768176074956
  35 H     1.0000    0     1.008          6.025118525619805         -5.321011304821039         17.947487287801660
  36 H     1.0000    0     1.008          9.964323327476984         -7.607930306907373         16.517082056515566
  37 H     1.0000    0     1.008         13.944581136421162        -14.761202249264894          7.365329272243352
  38 H     1.0000    0     1.008         16.448430330582099        -13.774759461656965          9.388292230433484
  39 H     1.0000    0     1.008         14.821058678051131        -16.650845377666048          9.986176899088527
  40 H     1.0000    0     1.008          8.611512490065278        -13.379468748558617         15.545574402893397
  41 H     1.0000    0     1.008         12.180300601406227        -16.611161068376006         13.490922402906328

--------------------------------
INTERNAL COORDINATES (ANGSTROEM)
--------------------------------
 C      0   0   0   0.000000     0.000     0.000
 C      1   0   0   1.345330     0.000     0.000
 N      1   2   0   1.401473   107.666     0.000
 C      3   1   2   1.367031   108.357   359.796
 N      4   3   1   1.358483   107.548     0.606
 C      3   1   2   1.429953   124.749   178.367
 C      6   3   1   1.376112   122.544    60.326
 C      7   6   3   1.411096   120.496   210.672
 C      8   7   6   1.421563   115.781    18.451
 C      9   8   7   1.368991   121.316   342.032
 N      6   3   1   1.451092   117.762   259.144
 C      5   4   3   1.468438   129.171   174.421
 H      9   8   7   1.088455   119.867   153.538
 H     10   9   8   1.081376   125.136   159.640
 H      8   7   6   1.083116   120.898   181.817
 H      7   6   3   1.087862   118.510    24.121
 H     12   5   4   1.089415   110.430   304.454
 H     12   5   4   1.089061   106.945   186.215
 H     12   5   4   1.087445   111.253    66.722
 H      1   2   3   1.075794   131.620   180.253
 H      2   1   3   1.076545   131.281   179.809
 C     11   6   3   3.552170   107.320   274.217
 C     22  11   6   1.345296    79.468   190.055
 N     22  11   6   1.401327    28.235     7.544
 C     11   6   3   1.354748   118.521   269.570
 N     25  11   6   1.358566   127.586   189.092
 C     24  22  11   1.430313   124.735   176.162
 C     27  24  22   1.375883   122.387    59.464
 C     28  27  24   1.411289   120.520   211.152
 C     29  28  27   1.421692   115.733    18.643
 C     30  29  28   1.368775   121.353   341.892
 N      4   3   1   1.354458   124.682   175.962
 C     26  25  11   1.468500   129.167   359.257
 H     30  29  28   1.088453   119.864   153.438
 H     31  30  29   1.081386   125.082   159.504
 H     29  28  27   1.083102   120.909   181.802
 H     28  27  24   1.087775   118.472    24.569
 H     33  26  25   1.089408   110.421   304.384
 H     33  26  25   1.087464   111.247    66.630
 H     33  26  25   1.089033   106.948   186.126
 H     22  11   6   1.075761   148.915    11.358
 H     23  22  11   1.076555   131.294   181.046

---------------------------
INTERNAL COORDINATES (A.U.)
---------------------------
 C      0   0   0   0.000000     0.000     0.000
 C      1   0   0   2.542305     0.000     0.000
 N      1   2   0   2.648401   107.666     0.000
 C      3   1   2   2.583315   108.357   359.796
 N      4   3   1   2.567160   107.548     0.606
 C      3   1   2   2.702219   124.749   178.367
 C      6   3   1   2.600475   122.544    60.326
 C      7   6   3   2.666584   120.496   210.672
 C      8   7   6   2.686364   115.781    18.451
 C      9   8   7   2.587018   121.316   342.032
 N      6   3   1   2.742166   117.762   259.144
 C      5   4   3   2.774945   129.171   174.421
 H      9   8   7   2.056882   119.867   153.538
 H     10   9   8   2.043505   125.136   159.640
 H      8   7   6   2.046793   120.898   181.817
 H      7   6   3   2.055761   118.510    24.121
 H     12   5   4   2.058696   110.430   304.454
 H     12   5   4   2.058026   106.945   186.215
 H     12   5   4   2.054974   111.253    66.722
 H      1   2   3   2.032955   131.620   180.253
 H      2   1   3   2.034375   131.281   179.809
 C     11   6   3   6.712629   107.320   274.217
 C     22  11   6   2.542242    79.468   190.055
 N     22  11   6   2.648125    28.235     7.544
 C     11   6   3   2.560103   118.521   269.570
 N     25  11   6   2.567317   127.586   189.092
 C     24  22  11   2.702900   124.735   176.162
 C     27  24  22   2.600042   122.387    59.464
 C     28  27  24   2.666950   120.520   211.152
 C     29  28  27   2.686608   115.733    18.643
 C     30  29  28   2.586610   121.353   341.892
 N      4   3   1   2.559555   124.682   175.962
 C     26  25  11   2.775064   129.167   359.257
 H     30  29  28   2.056879   119.864   153.438
 H     31  30  29   2.043524   125.082   159.504
 H     29  28  27   2.046767   120.909   181.802
 H     28  27  24   2.055597   118.472    24.569
 H     33  26  25   2.058683   110.421   304.384
 H     33  26  25   2.055010   111.247    66.630
 H     33  26  25   2.057973   106.948   186.126
 H     22  11   6   2.032894   148.915    11.358
 H     23  22  11   2.034393   131.294   181.046



           ************************************************************
           *        Program running with 24 parallel MPI-processes    *
           *              working on a common directory               *
           ************************************************************
           ************************************************************
           *              Shut down parallel processing               *
           ************************************************************


           ************************************************************
           *        Program running with 24 parallel MPI-processes    *
           *              working on a common directory               *
           ************************************************************

Diagonalization of the overlap matrix:
Smallest eigenvalue                        ... 1.076e-06
Time for diagonalization                   ...    0.541 sec
Threshold for overlap eigenvalues          ... 1.000e-08
Number of eigenvalues below threshold      ... 0
Time for construction of square roots      ...    0.217 sec
Total time needed                          ...    0.762 sec

-------------------
DFT GRID GENERATION
-------------------

General Integration Accuracy     IntAcc      ...  4.670
Radial Grid Type                 RadialGrid  ... Gauss-Chebyshev
Angular Grid (max. acc.)         AngularGrid ... Lebedev-302
Angular grid pruning method      GridPruning ... 3 (G Style)
Weight generation scheme         WeightScheme... Becke
Basis function cutoff            BFCut       ...    1.0000e-11
Integration weight cutoff        WCut        ...    1.0000e-14
Grids for H and He will be reduced by one unit

# of grid points (after initial pruning)     ... 210180 (   0.0 sec)
# of grid points (after weights+screening)   ... 181349 (   0.6 sec)
nearest neighbour list constructed           ...    0.0 sec
Grid point re-assignment to atoms done       ...    0.2 sec
Grid point division into batches done        ...    0.9 sec
Reduced shell lists constructed in    1.6 sec

Total number of grid points                  ...   181349
Total number of batches                      ...     2857
Average number of points per batch           ...       63
Average number of grid points per atom       ...     4318
Average number of shells per batch           ...   182.27 (55.23%)
Average number of basis functions per batch  ...   347.12 (53.08%)
Average number of large shells per batch     ...   136.88 (75.10%)
Average number of large basis fcns per batch ...   261.98 (75.47%)
Maximum spatial batch extension              ...   7.07, 15.43, 11.80 au
Average spatial batch extension              ...   0.05,  0.07,  0.06 au

Time for grid setup =    2.475 sec


--------------------
COSMO INITIALIZATION
--------------------

Epsilon                                      ...   36.6000
Refractive Index                             ...    1.3440
Potential Evaluation                         ...  ANALYTIC
Technical COSMO parameters:
  rsolv                                      ...    1.3000
  routf                                      ...    0.8500
  disex                                      ...   10.0000
  nppa                                       ... 1082   
  nspa                                       ...   92   
Radii:
 Radius for C  used is    3.7795 Bohr (=   2.0000 Ang.)
 Radius for N  used is    3.4582 Bohr (=   1.8300 Ang.)
 Radius for H  used is    2.4566 Bohr (=   1.3000 Ang.)
Initializing COSMO package            ... done
Setting COSMO radii                   ... done
Setting atoms and making cavity       ...  USING 1082 GRID
done
Cholesky decomposition of A           ... done
--------------
SCF ITERATIONS
--------------
ITER       Energy         Delta-E        Max-DP      RMS-DP      [F,P]     Damp
               ***  Starting incremental Fock matrix formation  ***
  0  -1024.6992131600   0.000000000000 0.50850212  0.00151380  0.0244925 0.7000
                      *** Initiating the SOSCF procedure ***
                      *** Re-Reading the Fockian *** 
                      *** Removing any level shift *** 
ITER      Energy       Delta-E        Grad      Rot      Max-DP    RMS-DP
  1  -1024.70305544  -0.0038422787  0.001481  0.001481  1.687324  0.004752
               *** Restarting incremental Fock matrix formation ***
  2  -1024.71353744  -0.0104820051  0.000884  0.004085  0.191262  0.001241
  3  -1024.71381980  -0.0002823590  0.001191  0.003613  0.290824  0.000894
  4  -1024.71388912  -0.0000693201  0.000556  0.001168  0.126574  0.000579
  5  -1024.71395559  -0.0000664640  0.000220  0.000775  0.095009  0.000295
  6  -1024.71395230   0.0000032843  0.000294  0.000571  0.061951  0.000242
  7  -1024.71396456  -0.0000122561  0.000058  0.000312  0.241129  0.000698
  8  -1024.71396373   0.0000008313  0.000097  0.000223  0.037970  0.000178
  9  -1024.71396506  -0.0000013368  0.000016  0.000073  0.068713  0.000414
 10  -1024.71396499   0.0000000768  0.000027  0.000046  0.077830  0.000255
